 vasp.5.4.4.18Apr17-6-g9f103f2a35 (build Oct 17 2024 17:34:12) complex          
  
 executed on             LinuxIFC date 2024.12.02  09:58:36
 running on   12 total cores
 distrk:  each k-point on   12 cores,    1 groups
 distr:  one band on NCORES_PER_BAND=   4 cores,    3 groups


--------------------------------------------------------------------------------------------------------


 INCAR:
 POTCAR:    PAW_PBE Fe 06Sep2000                  
 POTCAR:    PAW_PBE Si 05Jan2001                  
 POTCAR:    PAW_PBE Ta_pv 07Sep2000               
 POTCAR:    PAW_PBE Fe 06Sep2000                  
   VRHFIN =Fe:  d7 s1                                                           
   LEXCH  = PE                                                                  
   EATOM  =   594.3153 eV,   43.6809 Ry                                         
                                                                                
   TITEL  = PAW_PBE Fe 06Sep2000                                                
   LULTRA =        F    use ultrasoft PP ?                                      
   IUNSCR =        1    unscreen: 0-lin 1-nonlin 2-no                           
   RPACOR =    2.000    partial core radius                                     
   POMASS =   55.847; ZVAL   =    8.000    mass and valenz                      
   RCORE  =    2.300    outmost cutoff radius                                   
   RWIGS  =    2.460; RWIGS  =    1.302    wigner-seitz radius (au A)           
   ENMAX  =  267.882; ENMIN  =  200.911 eV                                      
   RCLOC  =    1.701    cutoff for local pot                                    
   LCOR   =        T    correct aug charges                                     
   LPAW   =        T    paw PP                                                  
   EAUG   =  511.368                                                            
   DEXC   =    0.000                                                            
   RMAX   =    2.356    core radius for proj-oper                               
   RAUG   =    1.300    factor for augmentation sphere                          
   RDEP   =    2.442    radius for radial grids                                 
   RDEPT  =    1.890    core radius for aug-charge                              
                                                                                
   Atomic configuration                                                         
    9 entries                                                                   
     n  l   j            E        occ.                                          
     1  0  0.50     -6993.8440   2.0000                                         
     2  0  0.50      -814.6047   2.0000                                         
     2  1  1.50      -693.3689   6.0000                                         
     3  0  0.50       -89.4732   2.0000                                         
     3  1  1.50       -55.6373   6.0000                                         
     3  2  2.50        -3.8151   7.0000                                         
     4  0  0.50        -4.2551   1.0000                                         
     4  1  1.50        -3.4015   0.0000                                         
     4  3  2.50        -1.3606   0.0000                                         
   Description                                                                  
     l       E           TYP  RCUT    TYP  RCUT                                 
     2     -3.8151135     23  2.300                                             
     2     -5.1756961     23  2.300                                             
     0     -4.2550963     23  2.300                                             
     0      7.2035603     23  2.300                                             
     1     -2.7211652     23  2.300                                             
     1     18.4316424     23  2.300                                             
  local pseudopotential read in
  partial core-charges read in
  partial kinetic energy density read in
  atomic valenz-charges read in
  non local Contribution for L=           2  read in
    real space projection operators read in
  non local Contribution for L=           2  read in
    real space projection operators read in
  non local Contribution for L=           0  read in
    real space projection operators read in
  non local Contribution for L=           0  read in
    real space projection operators read in
  non local Contribution for L=           1  read in
    real space projection operators read in
  non local Contribution for L=           1  read in
    real space projection operators read in
    PAW grid and wavefunctions read in
 
   number of l-projection  operators is LMAX  =           6
   number of lm-projection operators is LMMAX =          18
 
 POTCAR:    PAW_PBE Si 05Jan2001                  
   VRHFIN =Si: s2p2                                                             
   LEXCH  = PE                                                                  
   EATOM  =   103.0669 eV,    7.5752 Ry                                         
                                                                                
   TITEL  = PAW_PBE Si 05Jan2001                                                
   LULTRA =        F    use ultrasoft PP ?                                      
   IUNSCR =        1    unscreen: 0-lin 1-nonlin 2-no                           
   RPACOR =    1.500    partial core radius                                     
   POMASS =   28.085; ZVAL   =    4.000    mass and valenz                      
   RCORE  =    1.900    outmost cutoff radius                                   
   RWIGS  =    2.480; RWIGS  =    1.312    wigner-seitz radius (au A)           
   ENMAX  =  245.345; ENMIN  =  184.009 eV                                      
   ICORE  =        2    local potential                                         
   LCOR   =        T    correct aug charges                                     
   LPAW   =        T    paw PP                                                  
   EAUG   =  322.069                                                            
   DEXC   =    0.000                                                            
   RMAX   =    1.950    core radius for proj-oper                               
   RAUG   =    1.300    factor for augmentation sphere                          
   RDEP   =    1.993    radius for radial grids                                 
   RDEPT  =    1.837    core radius for aug-charge                              
                                                                                
   Atomic configuration                                                         
    6 entries                                                                   
     n  l   j            E        occ.                                          
     1  0  0.50     -1785.8828   2.0000                                         
     2  0  0.50      -139.4969   2.0000                                         
     2  1  1.50       -95.5546   6.0000                                         
     3  0  0.50       -10.8127   2.0000                                         
     3  1  0.50        -4.0811   2.0000                                         
     3  2  1.50        -4.0817   0.0000                                         
   Description                                                                  
     l       E           TYP  RCUT    TYP  RCUT                                 
     0    -10.8127223     23  1.900                                             
     0     -7.6451159     23  1.900                                             
     1     -4.0811372     23  1.900                                             
     1      2.4879257     23  1.900                                             
     2     -4.0817478      7  1.900                                             
  local pseudopotential read in
  partial core-charges read in
  partial kinetic energy density read in
  atomic valenz-charges read in
  non local Contribution for L=           0  read in
    real space projection operators read in
  non local Contribution for L=           0  read in
    real space projection operators read in
  non local Contribution for L=           1  read in
    real space projection operators read in
  non local Contribution for L=           1  read in
    real space projection operators read in
    PAW grid and wavefunctions read in
 
   number of l-projection  operators is LMAX  =           4
   number of lm-projection operators is LMMAX =           8
 
 POTCAR:    PAW_PBE Ta_pv 07Sep2000               
   VRHFIN =Ta:  5p6s5d                                                          
   LEXCH  = PE                                                                  
   EATOM  =  1047.1984 eV,   76.9669 Ry                                         
                                                                                
   TITEL  = PAW_PBE Ta_pv 07Sep2000                                             
   LULTRA =        F    use ultrasoft PP ?                                      
   IUNSCR =        1    unscreen: 0-lin 1-nonlin 2-no                           
   RPACOR =    2.330    partial core radius                                     
   POMASS =  180.948; ZVAL   =   11.000    mass and valenz                      
   RCORE  =    2.500    outmost cutoff radius                                   
   RWIGS  =    2.840; RWIGS  =    1.503    wigner-seitz radius (au A)           
   ENMAX  =  223.667; ENMIN  =  167.750 eV                                      
   RCLOC  =    2.205    cutoff for local pot                                    
   LCOR   =        T    correct aug charges                                     
   LPAW   =        T    paw PP                                                  
   EAUG   =  377.421                                                            
   DEXC   =    0.000                                                            
   RMAX   =    2.551    core radius for proj-oper                               
   RAUG   =    1.300    factor for augmentation sphere                          
   RDEP   =    2.526    radius for radial grids                                 
   RDEPT  =    2.132    core radius for aug-charge                              
                                                                                
   Atomic configuration                                                         
   15 entries                                                                   
     n  l   j            E        occ.                                          
     1  0  0.50    -67341.2801   2.0000                                         
     2  0  0.50    -11566.9369   2.0000                                         
     2  1  1.50    -10134.1175   6.0000                                         
     3  0  0.50     -2648.5614   2.0000                                         
     3  1  1.50     -2222.6006   6.0000                                         
     3  2  2.50     -1726.3114  10.0000                                         
     4  0  0.50      -538.6957   2.0000                                         
     4  1  1.50      -399.0125   6.0000                                         
     4  2  2.50      -220.3955  10.0000                                         
     4  3  3.50       -23.0371  14.0000                                         
     5  0  0.50       -71.2900   2.0000                                         
     5  1  1.50       -37.8224   6.0000                                         
     5  2  2.50        -2.6455   4.0000                                         
     6  0  0.50        -4.9623   1.0000                                         
     5  3  2.50        -1.3606   0.0000                                         
   Description                                                                  
     l       E           TYP  RCUT    TYP  RCUT                                 
     1    -37.8224449     23  2.500                                             
     1      1.3605826     23  2.500                                             
     2     -2.6454718     23  2.500                                             
     2     -0.6258570     23  2.500                                             
     0     -4.9622674     23  2.500                                             
     0      4.7531427     23  2.500                                             
  local pseudopotential read in
  partial core-charges read in
  partial kinetic energy density read in
  atomic valenz-charges read in
  non local Contribution for L=           1  read in
    real space projection operators read in
  non local Contribution for L=           1  read in
    real space projection operators read in
  non local Contribution for L=           2  read in
    real space projection operators read in
  non local Contribution for L=           2  read in
    real space projection operators read in
  non local Contribution for L=           0  read in
    real space projection operators read in
  non local Contribution for L=           0  read in
    real space projection operators read in
    PAW grid and wavefunctions read in
 
   number of l-projection  operators is LMAX  =           6
   number of lm-projection operators is LMMAX =          18
 
 Optimization of the real space projectors (new method)

 maximal supplied QI-value         = 16.25
 optimisation between [QCUT,QGAM] = [ 10.24, 20.48] = [ 29.35,117.42] Ry 
 Optimized for a Real-space Cutoff    1.51 Angstroem

   l    n(q)    QCUT    max X(q) W(low)/X(q) W(high)/X(q)  e(spline) 
   2      8    10.239    80.901    0.43E-03    0.67E-03    0.20E-06
   2      8    10.239    75.754    0.44E-03    0.68E-03    0.20E-06
   0      9    10.239    58.752    0.81E-04    0.41E-04    0.71E-07
   0      9    10.239    30.679    0.75E-04    0.39E-04    0.65E-07
   1      9    10.239    17.977    0.50E-04    0.16E-03    0.11E-06
   1      9    10.239    13.559    0.39E-04    0.13E-03    0.98E-07
 Optimization of the real space projectors (new method)

 maximal supplied QI-value         = 19.84
 optimisation between [QCUT,QGAM] = [ 10.12, 20.44] = [ 28.68,116.96] Ry 
 Optimized for a Real-space Cutoff    1.23 Angstroem

   l    n(q)    QCUT    max X(q) W(low)/X(q) W(high)/X(q)  e(spline) 
   0      7    10.119   159.560    0.56E-04    0.22E-03    0.45E-07
   0      7    10.119   115.863    0.56E-04    0.21E-03    0.45E-07
   1      7    10.119    88.339    0.34E-03    0.49E-03    0.11E-06
   1      7    10.119    48.592    0.33E-03    0.48E-03    0.11E-06
 Optimization of the real space projectors (new method)

 maximal supplied QI-value         = 15.12
 optimisation between [QCUT,QGAM] = [ 10.13, 20.41] = [ 28.73,116.64] Ry 
 Optimized for a Real-space Cutoff    1.55 Angstroem

   l    n(q)    QCUT    max X(q) W(low)/X(q) W(high)/X(q)  e(spline) 
   1      9    10.129     4.092    0.74E-04    0.38E-05    0.51E-07
   1      9    10.129     4.834    0.28E-03    0.57E-04    0.19E-06
   2      9    10.129    62.294    0.45E-03    0.13E-02    0.76E-06
   2      9    10.129    50.966    0.45E-03    0.13E-02    0.77E-06
   0      9    10.129   103.792    0.63E-04    0.63E-04    0.11E-06
   0      9    10.129    56.335    0.56E-04    0.56E-04    0.96E-07
  PAW_PBE Fe 06Sep2000                  :
 energy of atom  1       EATOM= -594.3153
 kinetic energy error for atom=    0.0088 (will be added to EATOM!!)
  PAW_PBE Si 05Jan2001                  :
 energy of atom  2       EATOM= -103.0669
 kinetic energy error for atom=    0.0012 (will be added to EATOM!!)
  PAW_PBE Ta_pv 07Sep2000               :
 energy of atom  3       EATOM=-1047.1984
 kinetic energy error for atom=    0.0046 (will be added to EATOM!!)
 
 
 POSCAR: Fe-TaSi2-180_z1-5                       
  positions in cartesian coordinates
  No initial velocities read in
 exchange correlation table for  LEXCH =        8
   RHO(1)=    0.500       N(1)  =     2000
   RHO(2)=  100.500       N(2)  =     4000
 


--------------------------------------------------------------------------------------------------------


 ion  position               nearest neighbor table
   1  0.000  0.000  0.000-  27 2.57  21 2.57  25 2.57  19 2.57  13 2.75   7 2.75   2 2.96
   2  0.000  0.000  0.053-  27 2.57  21 2.57  25 2.57  19 2.57  14 2.75   8 2.75  88 2.76 113 2.76
                             1 2.96
   3  0.000  0.333  0.000-  25 2.57  19 2.57  26 2.57  20 2.57  15 2.75   9 2.75   4 2.96
   4  0.000  0.333  0.053- 108 2.56  25 2.57  19 2.57  26 2.57  20 2.57  16 2.75  10 2.75   3 2.96
                           188 3.22
   5  0.000  0.667  0.000-  26 2.57  20 2.57  27 2.57  21 2.57  17 2.75  11 2.75   6 2.96
   6  0.000  0.667  0.053-  93 2.56  26 2.57  20 2.57  27 2.57  21 2.57  18 2.75  12 2.75   5 2.96
                           163 3.22
   7  0.333  0.000  0.000-  21 2.57  24 2.57  19 2.57  22 2.57   1 2.75  13 2.75   8 2.96
   8  0.333  0.000  0.053-  21 2.57  24 2.57  19 2.57  22 2.57   2 2.75  14 2.75 193 2.80  38 2.83
                             7 2.96
   9  0.333  0.333  0.000-  19 2.57  22 2.57  20 2.57  23 2.57   3 2.75  15 2.75  10 2.96
  10  0.333  0.333  0.053- 188 2.56  19 2.57  22 2.57  20 2.57  23 2.57  16 2.75   4 2.75   9 2.96

  11  0.333  0.667  0.000-  20 2.57  23 2.57  21 2.57  24 2.57   5 2.75  17 2.75  12 2.96
  12  0.333  0.667  0.053-  43 2.56  20 2.57  23 2.57  21 2.57  24 2.57  18 2.75   6 2.75  11 2.96
                           193 3.22
  13  0.667  0.000  0.000-  24 2.57  27 2.57  22 2.57  25 2.57   1 2.75   7 2.75  14 2.96
  14  0.667  0.000  0.053-  24 2.57  27 2.57  22 2.57  25 2.57   2 2.75   8 2.75 158 2.80  73 2.83
                            13 2.96
  15  0.667  0.333  0.000-  22 2.57  25 2.57  23 2.57  26 2.57   3 2.75   9 2.75  16 2.96
  16  0.667  0.333  0.053-  68 2.56  22 2.57  25 2.57  23 2.57  26 2.57   4 2.75  10 2.75  15 2.96
                           158 3.22
  17  0.667  0.667  0.000-  23 2.57  26 2.57  24 2.57  27 2.57   5 2.75  11 2.75  18 2.96
  18  0.667  0.667  0.053- 163 2.56  23 2.57  26 2.57  24 2.57  27 2.57   6 2.75  12 2.75  17 2.96

  19  0.167  0.167  0.026-   9 2.57  10 2.57   3 2.57   4 2.57   7 2.57   8 2.57   1 2.57   2 2.57
                            25 2.75  22 2.75
  20  0.167  0.500  0.026-  11 2.57  12 2.57   5 2.57   6 2.57   9 2.57  10 2.57   3 2.57   4 2.57
                            26 2.75  23 2.75
  21  0.167  0.833  0.026-   7 2.57   8 2.57   1 2.57   2 2.57  11 2.57  12 2.57   5 2.57   6 2.57
                            27 2.75  24 2.75
  22  0.500  0.167  0.026-  15 2.57  16 2.57   9 2.57  10 2.57  13 2.57  14 2.57   7 2.57   8 2.57
                            19 2.75  25 2.75
  23  0.500  0.500  0.026-  17 2.57  18 2.57  11 2.57  12 2.57  15 2.57  16 2.57   9 2.57  10 2.57
                            20 2.75  26 2.75
  24  0.500  0.833  0.026-  13 2.57  14 2.57   7 2.57   8 2.57  17 2.57  18 2.57  11 2.57  12 2.57
                            21 2.75  27 2.75
  25  0.833  0.167  0.026-   3 2.57   4 2.57  15 2.57  16 2.57   1 2.57   2 2.57  13 2.57  14 2.57
                            19 2.75  22 2.75
  26  0.833  0.500  0.026-   5 2.57   6 2.57  17 2.57  18 2.57   3 2.57   4 2.57  15 2.57  16 2.57
                            20 2.75  23 2.75
  27  0.833  0.833  0.026-   1 2.57   2 2.57  13 2.57  14 2.57   5 2.57   6 2.57  17 2.57  18 2.57
                            21 2.75  24 2.75
  28  0.921  0.119  0.135- 138 2.55  88 2.55 158 2.60 168 2.60  63 2.63 183 2.72 148 2.72 178 2.82
                            98 2.82  58 2.82
  29  0.921  0.119  0.252- 139 2.55  89 2.55 159 2.60 169 2.60  64 2.63 184 2.72 149 2.72 179 2.82
                            99 2.82  59 2.82
  30  0.921  0.119  0.369- 140 2.55  90 2.55 160 2.60 170 2.60  65 2.63 185 2.72 150 2.72 180 2.82
                           100 2.82  60 2.82
  31  0.921  0.119  0.486- 141 2.55  91 2.55 161 2.60 171 2.60  66 2.63 186 2.72 151 2.72 181 2.82
                           101 2.82  61 2.82
  32  0.921  0.119  0.603- 142 2.55  92 2.55 162 2.60 172 2.60  67 2.63 187 2.72 152 2.72 182 2.82
                           102 2.82  62 2.82
  33  0.921  0.619  0.135- 143 2.55  93 2.55 163 2.60 173 2.60  58 2.63 178 2.72 153 2.72 183 2.82
                           103 2.82  63 2.82
  34  0.921  0.619  0.252- 144 2.55  94 2.55 164 2.60 174 2.60  59 2.63 179 2.72 154 2.72 184 2.82
                           104 2.82  64 2.82
  35  0.921  0.619  0.369- 145 2.55  95 2.55 165 2.60 175 2.60  60 2.63 180 2.72 155 2.72 185 2.82
                           105 2.82  65 2.82
  36  0.921  0.619  0.486- 146 2.55  96 2.55 166 2.60 176 2.60  61 2.63 181 2.72 156 2.72 186 2.82
                           106 2.82  66 2.82
  37  0.921  0.619  0.603- 147 2.55  97 2.55 167 2.60 177 2.60  62 2.63 182 2.72 157 2.72 187 2.82
                           107 2.82  67 2.82
  38  0.421  0.131  0.096-  98 2.55 148 2.60  68 2.63 188 2.72 158 2.72 193 2.82  88 2.82  73 2.82
                             8 2.83
  39  0.421  0.131  0.213-  99 2.55  78 2.55 149 2.60 198 2.60  69 2.63 189 2.72 159 2.72 194 2.82
                            89 2.82  74 2.82
  40  0.421  0.131  0.330- 100 2.55  79 2.55 150 2.60 199 2.60  70 2.63 190 2.72 160 2.72 195 2.82
                            90 2.82  75 2.82
  41  0.421  0.131  0.447- 101 2.55  80 2.55 151 2.60 200 2.60  71 2.63 191 2.72 161 2.72 196 2.82
                            91 2.82  76 2.82
  42  0.421  0.131  0.564- 102 2.55  81 2.55 152 2.60 201 2.60  72 2.63 192 2.72 162 2.72 197 2.82
                            92 2.82  77 2.82
  43  0.421  0.631  0.096- 103 2.55  12 2.56 153 2.60  73 2.63 193 2.72 163 2.72 188 2.82  93 2.82
                            68 2.82
  44  0.421  0.631  0.213- 104 2.55  83 2.55 154 2.60 203 2.60  74 2.63 194 2.72 164 2.72 189 2.82
                            94 2.82  69 2.82
  45  0.421  0.631  0.330- 105 2.55  84 2.55 155 2.60 204 2.60  75 2.63 195 2.72 165 2.72 190 2.82
                            95 2.82  70 2.82
  46  0.421  0.631  0.447- 106 2.55  85 2.55 156 2.60 205 2.60  76 2.63 196 2.72 166 2.72 191 2.82
                            96 2.82  71 2.82
  47  0.421  0.631  0.564- 107 2.55  86 2.55 157 2.60 206 2.60  77 2.63 197 2.72 167 2.72 192 2.82
                            97 2.82  72 2.82
  48  0.659  0.250  0.174-  98 2.55  69 2.55 178 2.60 159 2.60  78 2.63 198 2.72 203 2.72 168 2.82
                           138 2.82 143 2.82
  49  0.659  0.250  0.291-  99 2.55  70 2.55 179 2.60 160 2.60  79 2.63 199 2.72 204 2.72 169 2.82
                           139 2.82 144 2.82
  50  0.659  0.250  0.408- 100 2.55  71 2.55 180 2.60 161 2.60  80 2.63 200 2.72 205 2.72 170 2.82
                           140 2.82 145 2.82
  51  0.659  0.250  0.525- 101 2.55  72 2.55 181 2.60 162 2.60  81 2.63 201 2.72 206 2.72 171 2.82
                           141 2.82 146 2.82
  52  0.659  0.250  0.642- 102 2.55 182 2.60  82 2.63 202 2.72 207 2.72 172 2.82 142 2.82 147 2.82

  53  0.659  0.750  0.174- 103 2.55  74 2.55 183 2.60 164 2.60  83 2.63 203 2.72 198 2.72 173 2.82
                           143 2.82 138 2.82
  54  0.659  0.750  0.291- 104 2.55  75 2.55 184 2.60 165 2.60  84 2.63 204 2.72 199 2.72 174 2.82
                           144 2.82 139 2.82
  55  0.659  0.750  0.408- 105 2.55  76 2.55 185 2.60 166 2.60  85 2.63 205 2.72 200 2.72 175 2.82
                           145 2.82 140 2.82
  56  0.659  0.750  0.525- 106 2.55  77 2.55 186 2.60 167 2.60  86 2.63 206 2.72 201 2.72 176 2.82
                           146 2.82 141 2.82
  57  0.659  0.750  0.642- 107 2.55 187 2.60  87 2.63 207 2.72 202 2.72 177 2.82 147 2.82 142 2.82

  58  0.079  0.381  0.135- 133 2.55 108 2.55 188 2.60 168 2.60  33 2.63 153 2.72 178 2.72 148 2.82
                           118 2.82  28 2.82
  59  0.079  0.381  0.252- 134 2.55 109 2.55 189 2.60 169 2.60  34 2.63 154 2.72 179 2.72 149 2.82
                           119 2.82  29 2.82
  60  0.079  0.381  0.369- 135 2.55 110 2.55 190 2.60 170 2.60  35 2.63 155 2.72 180 2.72 150 2.82
                           120 2.82  30 2.82
  61  0.079  0.381  0.486- 136 2.55 111 2.55 191 2.60 171 2.60  36 2.63 156 2.72 181 2.72 151 2.82
                           121 2.82  31 2.82
  62  0.079  0.381  0.603- 137 2.55 112 2.55 192 2.60 172 2.60  37 2.63 157 2.72 182 2.72 152 2.82
                           122 2.82  32 2.82
  63  0.079  0.881  0.135- 128 2.55 113 2.55 193 2.60 173 2.60  28 2.63 148 2.72 183 2.72 153 2.82
                           123 2.82  33 2.82
  64  0.079  0.881  0.252- 129 2.55 114 2.55 194 2.60 174 2.60  29 2.63 149 2.72 184 2.72 154 2.82
                           124 2.82  34 2.82
  65  0.079  0.881  0.369- 130 2.55 115 2.55 195 2.60 175 2.60  30 2.63 150 2.72 185 2.72 155 2.82
                           125 2.82  35 2.82
  66  0.079  0.881  0.486- 131 2.55 116 2.55 196 2.60 176 2.60  31 2.63 151 2.72 186 2.72 156 2.82
                           126 2.82  36 2.82
  67  0.079  0.881  0.603- 132 2.55 117 2.55 197 2.60 177 2.60  32 2.63 152 2.72 187 2.72 157 2.82
                           127 2.82  37 2.82
  68  0.579  0.369  0.096- 118 2.55  16 2.56 178 2.60  38 2.63 158 2.72 188 2.72 163 2.82 108 2.82
                            43 2.82
  69  0.579  0.369  0.213- 119 2.55  48 2.55 179 2.60 203 2.60  39 2.63 159 2.72 189 2.72 164 2.82
                           109 2.82  44 2.82
  70  0.579  0.369  0.330- 120 2.55  49 2.55 180 2.60 204 2.60  40 2.63 160 2.72 190 2.72 165 2.82
                           110 2.82  45 2.82
  71  0.579  0.369  0.447- 121 2.55  50 2.55 181 2.60 205 2.60  41 2.63 161 2.72 191 2.72 166 2.82
                           111 2.82  46 2.82
  72  0.579  0.369  0.564- 122 2.55  51 2.55 182 2.60 206 2.60  42 2.63 162 2.72 192 2.72 167 2.82
                           112 2.82  47 2.82
  73  0.579  0.869  0.096- 123 2.55 183 2.60  43 2.63 163 2.72 193 2.72 158 2.82 113 2.82  38 2.82
                            14 2.83
  74  0.579  0.869  0.213- 124 2.55  53 2.55 184 2.60 198 2.60  44 2.63 164 2.72 194 2.72 159 2.82
                           114 2.82  39 2.82
  75  0.579  0.869  0.330- 125 2.55  54 2.55 185 2.60 199 2.60  45 2.63 165 2.72 195 2.72 160 2.82
                           115 2.82  40 2.82
  76  0.579  0.869  0.447- 126 2.55  55 2.55 186 2.60 200 2.60  46 2.63 166 2.72 196 2.72 161 2.82
                           116 2.82  41 2.82
  77  0.579  0.869  0.564- 127 2.55  56 2.55 187 2.60 201 2.60  47 2.63 167 2.72 197 2.72 162 2.82
                           117 2.82  42 2.82
  78  0.341  0.250  0.174- 118 2.55  39 2.55 148 2.60 189 2.60  48 2.63 198 2.72 203 2.72 168 2.82
                           128 2.82 133 2.82
  79  0.341  0.250  0.291- 119 2.55  40 2.55 149 2.60 190 2.60  49 2.63 199 2.72 204 2.72 169 2.82
                           129 2.82 134 2.82
  80  0.341  0.250  0.408- 120 2.55  41 2.55 150 2.60 191 2.60  50 2.63 200 2.72 205 2.72 170 2.82
                           130 2.82 135 2.82
  81  0.341  0.250  0.525- 121 2.55  42 2.55 151 2.60 192 2.60  51 2.63 201 2.72 206 2.72 171 2.82
                           131 2.82 136 2.82
  82  0.341  0.250  0.642- 122 2.55 152 2.60  52 2.63 202 2.72 207 2.72 172 2.82 132 2.82 137 2.82

  83  0.341  0.750  0.174- 123 2.55  44 2.55 153 2.60 194 2.60  53 2.63 203 2.72 198 2.72 173 2.82
                           133 2.82 128 2.82
  84  0.341  0.750  0.291- 124 2.55  45 2.55 154 2.60 195 2.60  54 2.63 204 2.72 199 2.72 174 2.82
                           134 2.82 129 2.82
  85  0.341  0.750  0.408- 125 2.55  46 2.55 155 2.60 196 2.60  55 2.63 205 2.72 200 2.72 175 2.82
                           135 2.82 130 2.82
  86  0.341  0.750  0.525- 126 2.55  47 2.55 156 2.60 197 2.60  56 2.63 206 2.72 201 2.72 176 2.82
                           136 2.82 131 2.82
  87  0.341  0.750  0.642- 127 2.55 157 2.60  57 2.63 207 2.72 202 2.72 177 2.82 137 2.82 132 2.82

  88  0.079  0.119  0.096-  28 2.55 148 2.60 113 2.63 193 2.72 158 2.72   2 2.76 188 2.82  38 2.82
                           108 2.82
  89  0.079  0.119  0.213-  29 2.55 128 2.55 149 2.60 168 2.60 114 2.63 194 2.72 159 2.72 189 2.82
                            39 2.82 109 2.82
  90  0.079  0.119  0.330-  30 2.55 129 2.55 150 2.60 169 2.60 115 2.63 195 2.72 160 2.72 190 2.82
                            40 2.82 110 2.82
  91  0.079  0.119  0.447-  31 2.55 130 2.55 151 2.60 170 2.60 116 2.63 196 2.72 161 2.72 191 2.82
                            41 2.82 111 2.82
  92  0.079  0.119  0.564-  32 2.55 131 2.55 152 2.60 171 2.60 117 2.63 197 2.72 162 2.72 192 2.82
                            42 2.82 112 2.82
  93  0.079  0.619  0.096-  33 2.55   6 2.56 153 2.60 108 2.63 188 2.72 163 2.72 193 2.82  43 2.82
                           113 2.82
  94  0.079  0.619  0.213-  34 2.55 133 2.55 154 2.60 173 2.60 109 2.63 189 2.72 164 2.72 194 2.82
                            44 2.82 114 2.82
  95  0.079  0.619  0.330-  35 2.55 134 2.55 155 2.60 174 2.60 110 2.63 190 2.72 165 2.72 195 2.82
                            45 2.82 115 2.82
  96  0.079  0.619  0.447-  36 2.55 135 2.55 156 2.60 175 2.60 111 2.63 191 2.72 166 2.72 196 2.82
                            46 2.82 116 2.82
  97  0.079  0.619  0.564-  37 2.55 136 2.55 157 2.60 176 2.60 112 2.63 192 2.72 167 2.72 197 2.82
                            47 2.82 117 2.82
  98  0.579  0.131  0.135-  48 2.55  38 2.55 158 2.60 198 2.60 118 2.63 178 2.72 148 2.72 183 2.82
                            28 2.82 123 2.82
  99  0.579  0.131  0.252-  49 2.55  39 2.55 159 2.60 199 2.60 119 2.63 179 2.72 149 2.72 184 2.82
                            29 2.82 124 2.82
 100  0.579  0.131  0.369-  50 2.55  40 2.55 160 2.60 200 2.60 120 2.63 180 2.72 150 2.72 185 2.82
                            30 2.82 125 2.82
 101  0.579  0.131  0.486-  51 2.55  41 2.55 161 2.60 201 2.60 121 2.63 181 2.72 151 2.72 186 2.82
                            31 2.82 126 2.82
 102  0.579  0.131  0.603-  52 2.55  42 2.55 162 2.60 202 2.60 122 2.63 182 2.72 152 2.72 187 2.82
                            32 2.82 127 2.82
 103  0.579  0.631  0.135-  53 2.55  43 2.55 163 2.60 203 2.60 123 2.63 183 2.72 153 2.72 178 2.82
                            33 2.82 118 2.82
 104  0.579  0.631  0.252-  54 2.55  44 2.55 164 2.60 204 2.60 124 2.63 184 2.72 154 2.72 179 2.82
                            34 2.82 119 2.82
 105  0.579  0.631  0.369-  55 2.55  45 2.55 165 2.60 205 2.60 125 2.63 185 2.72 155 2.72 180 2.82
                            35 2.82 120 2.82
 106  0.579  0.631  0.486-  56 2.55  46 2.55 166 2.60 206 2.60 126 2.63 186 2.72 156 2.72 181 2.82
                            36 2.82 121 2.82
 107  0.579  0.631  0.603-  57 2.55  47 2.55 167 2.60 207 2.60 127 2.63 187 2.72 157 2.72 182 2.82
                            37 2.82 122 2.82
 108  0.921  0.381  0.096-  58 2.55   4 2.56 178 2.60  93 2.63 163 2.72 188 2.72 158 2.82  68 2.82
                            88 2.82
 109  0.921  0.381  0.213-  59 2.55 143 2.55 179 2.60 168 2.60  94 2.63 164 2.72 189 2.72 159 2.82
                            69 2.82  89 2.82
 110  0.921  0.381  0.330-  60 2.55 144 2.55 180 2.60 169 2.60  95 2.63 165 2.72 190 2.72 160 2.82
                            70 2.82  90 2.82
 111  0.921  0.381  0.447-  61 2.55 145 2.55 181 2.60 170 2.60  96 2.63 166 2.72 191 2.72 161 2.82
                            71 2.82  91 2.82
 112  0.921  0.381  0.564-  62 2.55 146 2.55 182 2.60 171 2.60  97 2.63 167 2.72 192 2.72 162 2.82
                            72 2.82  92 2.82
 113  0.921  0.881  0.096-  63 2.55 183 2.60  88 2.63 158 2.72 193 2.72   2 2.76 163 2.82  73 2.82
                            93 2.82
 114  0.921  0.881  0.213-  64 2.55 138 2.55 184 2.60 173 2.60  89 2.63 159 2.72 194 2.72 164 2.82
                            74 2.82  94 2.82
 115  0.921  0.881  0.330-  65 2.55 139 2.55 185 2.60 174 2.60  90 2.63 160 2.72 195 2.72 165 2.82
                            75 2.82  95 2.82
 116  0.921  0.881  0.447-  66 2.55 140 2.55 186 2.60 175 2.60  91 2.63 161 2.72 196 2.72 166 2.82
                            76 2.82  96 2.82
 117  0.921  0.881  0.564-  67 2.55 141 2.55 187 2.60 176 2.60  92 2.63 162 2.72 197 2.72 167 2.82
                            77 2.82  97 2.82
 118  0.421  0.369  0.135-  78 2.55  68 2.55 188 2.60 203 2.60  98 2.63 148 2.72 178 2.72 153 2.82
                            58 2.82 103 2.82
 119  0.421  0.369  0.252-  79 2.55  69 2.55 189 2.60 204 2.60  99 2.63 149 2.72 179 2.72 154 2.82
                            59 2.82 104 2.82
 120  0.421  0.369  0.369-  80 2.55  70 2.55 190 2.60 205 2.60 100 2.63 150 2.72 180 2.72 155 2.82
                            60 2.82 105 2.82
 121  0.421  0.369  0.486-  81 2.55  71 2.55 191 2.60 206 2.60 101 2.63 151 2.72 181 2.72 156 2.82
                            61 2.82 106 2.82
 122  0.421  0.369  0.603-  82 2.55  72 2.55 192 2.60 207 2.60 102 2.63 152 2.72 182 2.72 157 2.82
                            62 2.82 107 2.82
 123  0.421  0.869  0.135-  83 2.55  73 2.55 193 2.60 198 2.60 103 2.63 153 2.72 183 2.72 148 2.82
                            63 2.82  98 2.82
 124  0.421  0.869  0.252-  84 2.55  74 2.55 194 2.60 199 2.60 104 2.63 154 2.72 184 2.72 149 2.82
                            64 2.82  99 2.82
 125  0.421  0.869  0.369-  85 2.55  75 2.55 195 2.60 200 2.60 105 2.63 155 2.72 185 2.72 150 2.82
                            65 2.82 100 2.82
 126  0.421  0.869  0.486-  86 2.55  76 2.55 196 2.60 201 2.60 106 2.63 156 2.72 186 2.72 151 2.82
                            66 2.82 101 2.82
 127  0.421  0.869  0.603-  87 2.55  77 2.55 197 2.60 202 2.60 107 2.63 157 2.72 187 2.72 152 2.82
                            67 2.82 102 2.82
 128  0.159  0.000  0.174-  63 2.55  89 2.55 148 2.60 194 2.60 138 2.63 168 2.72 173 2.72 198 2.82
                            78 2.82  83 2.82
 129  0.159  0.000  0.291-  64 2.55  90 2.55 149 2.60 195 2.60 139 2.63 169 2.72 174 2.72 199 2.82
                            79 2.82  84 2.82
 130  0.159  0.000  0.408-  65 2.55  91 2.55 150 2.60 196 2.60 140 2.63 170 2.72 175 2.72 200 2.82
                            80 2.82  85 2.82
 131  0.159  0.000  0.525-  66 2.55  92 2.55 151 2.60 197 2.60 141 2.63 171 2.72 176 2.72 201 2.82
                            81 2.82  86 2.82
 132  0.159  0.000  0.642-  67 2.55 152 2.60 142 2.63 172 2.72 177 2.72 202 2.82  82 2.82  87 2.82

 133  0.159  0.500  0.174-  58 2.55  94 2.55 153 2.60 189 2.60 143 2.63 173 2.72 168 2.72 203 2.82
                            83 2.82  78 2.82
 134  0.159  0.500  0.291-  59 2.55  95 2.55 154 2.60 190 2.60 144 2.63 174 2.72 169 2.72 204 2.82
                            84 2.82  79 2.82
 135  0.159  0.500  0.408-  60 2.55  96 2.55 155 2.60 191 2.60 145 2.63 175 2.72 170 2.72 205 2.82
                            85 2.82  80 2.82
 136  0.159  0.500  0.525-  61 2.55  97 2.55 156 2.60 192 2.60 146 2.63 176 2.72 171 2.72 206 2.82
                            86 2.82  81 2.82
 137  0.159  0.500  0.642-  62 2.55 157 2.60 147 2.63 177 2.72 172 2.72 207 2.82  87 2.82  82 2.82

 138  0.841  0.000  0.174-  28 2.55 114 2.55 183 2.60 159 2.60 128 2.63 168 2.72 173 2.72 198 2.82
                            48 2.82  53 2.82
 139  0.841  0.000  0.291-  29 2.55 115 2.55 184 2.60 160 2.60 129 2.63 169 2.72 174 2.72 199 2.82
                            49 2.82  54 2.82
 140  0.841  0.000  0.408-  30 2.55 116 2.55 185 2.60 161 2.60 130 2.63 170 2.72 175 2.72 200 2.82
                            50 2.82  55 2.82
 141  0.841  0.000  0.525-  31 2.55 117 2.55 186 2.60 162 2.60 131 2.63 171 2.72 176 2.72 201 2.82
                            51 2.82  56 2.82
 142  0.841  0.000  0.642-  32 2.55 187 2.60 132 2.63 172 2.72 177 2.72 202 2.82  52 2.82  57 2.82

 143  0.841  0.500  0.174-  33 2.55 109 2.55 178 2.60 164 2.60 133 2.63 173 2.72 168 2.72 203 2.82
                            53 2.82  48 2.82
 144  0.841  0.500  0.291-  34 2.55 110 2.55 179 2.60 165 2.60 134 2.63 174 2.72 169 2.72 204 2.82
                            54 2.82  49 2.82
 145  0.841  0.500  0.408-  35 2.55 111 2.55 180 2.60 166 2.60 135 2.63 175 2.72 170 2.72 205 2.82
                            55 2.82  50 2.82
 146  0.841  0.500  0.525-  36 2.55 112 2.55 181 2.60 167 2.60 136 2.63 176 2.72 171 2.72 206 2.82
                            56 2.82  51 2.82
 147  0.841  0.500  0.642-  37 2.55 182 2.60 137 2.63 177 2.72 172 2.72 207 2.82  57 2.82  52 2.82

 148  0.250  0.125  0.135-  38 2.60  88 2.60  78 2.60 128 2.60 118 2.72  63 2.72  98 2.72  28 2.72
                           123 2.82  58 2.82 198 3.23 188 3.23 193 3.23 168 3.23
 149  0.250  0.125  0.252-  39 2.60  89 2.60  79 2.60 129 2.60 119 2.72  64 2.72  99 2.72  29 2.72
                           124 2.82  59 2.82 199 3.23 189 3.23 194 3.23 169 3.23
 150  0.250  0.125  0.369-  40 2.60  90 2.60  80 2.60 130 2.60 120 2.72  65 2.72 100 2.72  30 2.72
                           125 2.82  60 2.82 200 3.23 190 3.23 195 3.23 170 3.23
 151  0.250  0.125  0.486-  41 2.60  91 2.60  81 2.60 131 2.60 121 2.72  66 2.72 101 2.72  31 2.72
                           126 2.82  61 2.82 201 3.23 191 3.23 196 3.23 171 3.23
 152  0.250  0.125  0.603-  42 2.60  92 2.60  82 2.60 132 2.60 122 2.72  67 2.72 102 2.72  32 2.72
                           127 2.82  62 2.82 202 3.23 192 3.23 197 3.23 172 3.23
 153  0.250  0.625  0.135-  43 2.60  93 2.60 133 2.60  83 2.60  58 2.72 123 2.72 103 2.72  33 2.72
                           118 2.82  63 2.82 203 3.23 188 3.23 193 3.23 173 3.23
 154  0.250  0.625  0.252-  44 2.60  94 2.60 134 2.60  84 2.60  59 2.72 124 2.72 104 2.72  34 2.72
                           119 2.82  64 2.82 204 3.23 189 3.23 194 3.23 174 3.23
 155  0.250  0.625  0.369-  45 2.60  95 2.60 135 2.60  85 2.60  60 2.72 125 2.72 105 2.72  35 2.72
                           120 2.82  65 2.82 205 3.23 190 3.23 195 3.23 175 3.23
 156  0.250  0.625  0.486-  46 2.60  96 2.60 136 2.60  86 2.60  61 2.72 126 2.72 106 2.72  36 2.72
                           121 2.82  66 2.82 206 3.23 191 3.23 196 3.23 176 3.23
 157  0.250  0.625  0.603-  47 2.60  97 2.60 137 2.60  87 2.60  62 2.72 127 2.72 107 2.72  37 2.72
                           122 2.82  67 2.82 207 3.23 192 3.23 197 3.23 177 3.23
 158  0.750  0.125  0.096-  98 2.60  28 2.60  68 2.72 113 2.72  88 2.72  38 2.72  14 2.80 108 2.82
                            73 2.82  16 3.22 178 3.23 183 3.23
 159  0.750  0.125  0.213-  99 2.60  29 2.60  48 2.60 138 2.60  69 2.72 114 2.72  89 2.72  39 2.72
                           109 2.82  74 2.82 179 3.23 184 3.23 168 3.23 198 3.23
 160  0.750  0.125  0.330- 100 2.60  30 2.60  49 2.60 139 2.60  70 2.72 115 2.72  90 2.72  40 2.72
                           110 2.82  75 2.82 180 3.23 185 3.23 169 3.23 199 3.23
 161  0.750  0.125  0.447- 101 2.60  31 2.60  50 2.60 140 2.60  71 2.72 116 2.72  91 2.72  41 2.72
                           111 2.82  76 2.82 181 3.23 186 3.23 170 3.23 200 3.23
 162  0.750  0.125  0.564- 102 2.60  32 2.60  51 2.60 141 2.60  72 2.72 117 2.72  92 2.72  42 2.72
                           112 2.82  77 2.82 182 3.23 187 3.23 171 3.23 201 3.23
 163  0.750  0.625  0.096-  18 2.56  33 2.60 103 2.60 108 2.72  73 2.72  93 2.72  43 2.72  68 2.82
                           113 2.82   6 3.22 178 3.23 183 3.23
 164  0.750  0.625  0.213-  34 2.60 104 2.60 143 2.60  53 2.60 109 2.72  74 2.72  94 2.72  44 2.72
                            69 2.82 114 2.82 179 3.23 184 3.23 203 3.23 173 3.23
 165  0.750  0.625  0.330-  35 2.60 105 2.60 144 2.60  54 2.60 110 2.72  75 2.72  95 2.72  45 2.72
                            70 2.82 115 2.82 180 3.23 185 3.23 204 3.23 174 3.23
 166  0.750  0.625  0.447-  36 2.60 106 2.60 145 2.60  55 2.60 111 2.72  76 2.72  96 2.72  46 2.72
                            71 2.82 116 2.82 181 3.23 186 3.23 205 3.23 175 3.23
 167  0.750  0.625  0.564-  37 2.60 107 2.60 146 2.60  56 2.60 112 2.72  77 2.72  97 2.72  47 2.72
                            72 2.82 117 2.82 182 3.23 187 3.23 206 3.23 176 3.23
 168  0.000  0.250  0.174-  58 2.60  28 2.60 109 2.60  89 2.60 138 2.72 143 2.72 128 2.72 133 2.72
                            78 2.82  48 2.82 178 3.23 148 3.23 159 3.23 189 3.23
 169  0.000  0.250  0.291-  59 2.60  29 2.60 110 2.60  90 2.60 139 2.72 144 2.72 129 2.72 134 2.72
                            79 2.82  49 2.82 179 3.23 149 3.23 160 3.23 190 3.23
 170  0.000  0.250  0.408-  60 2.60  30 2.60 111 2.60  91 2.60 140 2.72 145 2.72 130 2.72 135 2.72
                            80 2.82  50 2.82 180 3.23 150 3.23 161 3.23 191 3.23
 171  0.000  0.250  0.525-  61 2.60  31 2.60 112 2.60  92 2.60 141 2.72 146 2.72 131 2.72 136 2.72
                            81 2.82  51 2.82 181 3.23 151 3.23 162 3.23 192 3.23
 172  0.000  0.250  0.642-  62 2.60  32 2.60 142 2.72 147 2.72 132 2.72 137 2.72  82 2.82  52 2.82
                           182 3.23 152 3.23
 173  0.000  0.750  0.174-  33 2.60  63 2.60  94 2.60 114 2.60 143 2.72 133 2.72 138 2.72 128 2.72
                            83 2.82  53 2.82 183 3.23 153 3.23 164 3.23 194 3.23
 174  0.000  0.750  0.291-  34 2.60  64 2.60  95 2.60 115 2.60 144 2.72 134 2.72 139 2.72 129 2.72
                            84 2.82  54 2.82 184 3.23 154 3.23 165 3.23 195 3.23
 175  0.000  0.750  0.408-  35 2.60  65 2.60  96 2.60 116 2.60 145 2.72 135 2.72 140 2.72 130 2.72
                            85 2.82  55 2.82 185 3.23 155 3.23 166 3.23 196 3.23
 176  0.000  0.750  0.525-  36 2.60  66 2.60  97 2.60 117 2.60 146 2.72 136 2.72 141 2.72 131 2.72
                            86 2.82  56 2.82 186 3.23 156 3.23 167 3.23 197 3.23
 177  0.000  0.750  0.642-  37 2.60  67 2.60 147 2.72 137 2.72 142 2.72 132 2.72  87 2.82  57 2.82
                           187 3.23 157 3.23
 178  0.750  0.375  0.135- 108 2.60  68 2.60  48 2.60 143 2.60  33 2.72  98 2.72  58 2.72 118 2.72
                           103 2.82  28 2.82 163 3.23 158 3.23 168 3.23 203 3.23
 179  0.750  0.375  0.252- 109 2.60  69 2.60  49 2.60 144 2.60  34 2.72  99 2.72  59 2.72 119 2.72
                           104 2.82  29 2.82 164 3.23 159 3.23 169 3.23 204 3.23
 180  0.750  0.375  0.369- 110 2.60  70 2.60  50 2.60 145 2.60  35 2.72 100 2.72  60 2.72 120 2.72
                           105 2.82  30 2.82 165 3.23 160 3.23 170 3.23 205 3.23
 181  0.750  0.375  0.486- 111 2.60  71 2.60  51 2.60 146 2.60  36 2.72 101 2.72  61 2.72 121 2.72
                           106 2.82  31 2.82 166 3.23 161 3.23 171 3.23 206 3.23
 182  0.750  0.375  0.603- 112 2.60  72 2.60  52 2.60 147 2.60  37 2.72 102 2.72  62 2.72 122 2.72
                           107 2.82  32 2.82 167 3.23 162 3.23 172 3.23 207 3.23
 183  0.750  0.875  0.135-  73 2.60 113 2.60  53 2.60 138 2.60 103 2.72  28 2.72  63 2.72 123 2.72
                            33 2.82  98 2.82 163 3.23 158 3.23 173 3.23 198 3.23
 184  0.750  0.875  0.252-  74 2.60 114 2.60  54 2.60 139 2.60 104 2.72  29 2.72  64 2.72 124 2.72
                            34 2.82  99 2.82 164 3.23 159 3.23 174 3.23 199 3.23
 185  0.750  0.875  0.369-  75 2.60 115 2.60  55 2.60 140 2.60 105 2.72  30 2.72  65 2.72 125 2.72
                            35 2.82 100 2.82 165 3.23 160 3.23 175 3.23 200 3.23
 186  0.750  0.875  0.486-  76 2.60 116 2.60  56 2.60 141 2.60 106 2.72  31 2.72  66 2.72 126 2.72
                            36 2.82 101 2.82 166 3.23 161 3.23 176 3.23 201 3.23
 187  0.750  0.875  0.603-  77 2.60 117 2.60  57 2.60 142 2.60 107 2.72  32 2.72  67 2.72 127 2.72
                            37 2.82 102 2.82 167 3.23 162 3.23 177 3.23 202 3.23
 188  0.250  0.375  0.096-  10 2.56 118 2.60  58 2.60  93 2.72  38 2.72  68 2.72 108 2.72  43 2.82
                            88 2.82   4 3.22 153 3.23 148 3.23
 189  0.250  0.375  0.213- 119 2.60  59 2.60  78 2.60 133 2.60  94 2.72  39 2.72  69 2.72 109 2.72
                            44 2.82  89 2.82 154 3.23 149 3.23 203 3.23 168 3.23
 190  0.250  0.375  0.330- 120 2.60  60 2.60  79 2.60 134 2.60  95 2.72  40 2.72  70 2.72 110 2.72
                            45 2.82  90 2.82 155 3.23 150 3.23 204 3.23 169 3.23
 191  0.250  0.375  0.447- 121 2.60  61 2.60  80 2.60 135 2.60  96 2.72  41 2.72  71 2.72 111 2.72
                            46 2.82  91 2.82 156 3.23 151 3.23 205 3.23 170 3.23
 192  0.250  0.375  0.564- 122 2.60  62 2.60  81 2.60 136 2.60  97 2.72  42 2.72  72 2.72 112 2.72
                            47 2.82  92 2.82 157 3.23 152 3.23 206 3.23 171 3.23
 193  0.250  0.875  0.096- 123 2.60  63 2.60  43 2.72  88 2.72  73 2.72 113 2.72   8 2.80  38 2.82
                            93 2.82  12 3.22 153 3.23 148 3.23
 194  0.250  0.875  0.213- 124 2.60  64 2.60  83 2.60 128 2.60  44 2.72  89 2.72  74 2.72 114 2.72
                            39 2.82  94 2.82 154 3.23 149 3.23 198 3.23 173 3.23
 195  0.250  0.875  0.330- 125 2.60  65 2.60  84 2.60 129 2.60  45 2.72  90 2.72  75 2.72 115 2.72
                            40 2.82  95 2.82 155 3.23 150 3.23 199 3.23 174 3.23
 196  0.250  0.875  0.447- 126 2.60  66 2.60  85 2.60 130 2.60  46 2.72  91 2.72  76 2.72 116 2.72
                            41 2.82  96 2.82 156 3.23 151 3.23 200 3.23 175 3.23
 197  0.250  0.875  0.564- 127 2.60  67 2.60  86 2.60 131 2.60  47 2.72  92 2.72  77 2.72 117 2.72
                            42 2.82  97 2.82 157 3.23 152 3.23 201 3.23 176 3.23
 198  0.500  0.000  0.174- 123 2.60  98 2.60  39 2.60  74 2.60  78 2.72  48 2.72  83 2.72  53 2.72
                           128 2.82 138 2.82 148 3.23 183 3.23 194 3.23 159 3.23
 199  0.500  0.000  0.291- 124 2.60  99 2.60  40 2.60  75 2.60  79 2.72  49 2.72  84 2.72  54 2.72
                           129 2.82 139 2.82 149 3.23 184 3.23 195 3.23 160 3.23
 200  0.500  0.000  0.408- 125 2.60 100 2.60  41 2.60  76 2.60  80 2.72  50 2.72  85 2.72  55 2.72
                           130 2.82 140 2.82 150 3.23 185 3.23 196 3.23 161 3.23
 201  0.500  0.000  0.525- 126 2.60 101 2.60  42 2.60  77 2.60  81 2.72  51 2.72  86 2.72  56 2.72
                           131 2.82 141 2.82 151 3.23 186 3.23 197 3.23 162 3.23
 202  0.500  0.000  0.642- 127 2.60 102 2.60  82 2.72  52 2.72  87 2.72  57 2.72 132 2.82 142 2.82
                           152 3.23 187 3.23
 203  0.500  0.500  0.174- 103 2.60 118 2.60  44 2.60  69 2.60  83 2.72  53 2.72  78 2.72  48 2.72
                           133 2.82 143 2.82 153 3.23 178 3.23 189 3.23 164 3.23
 204  0.500  0.500  0.291- 104 2.60 119 2.60  45 2.60  70 2.60  84 2.72  54 2.72  79 2.72  49 2.72
                           134 2.82 144 2.82 154 3.23 179 3.23 190 3.23 165 3.23
 205  0.500  0.500  0.408- 105 2.60 120 2.60  46 2.60  71 2.60  85 2.72  55 2.72  80 2.72  50 2.72
                           135 2.82 145 2.82 155 3.23 180 3.23 191 3.23 166 3.23
 206  0.500  0.500  0.525- 106 2.60 121 2.60  47 2.60  72 2.60  86 2.72  56 2.72  81 2.72  51 2.72
                           136 2.82 146 2.82 156 3.23 181 3.23 192 3.23 167 3.23
 207  0.500  0.500  0.642- 107 2.60 122 2.60  87 2.72  57 2.72  82 2.72  52 2.72 137 2.82 147 2.82
                           157 3.23 182 3.23
 
  LATTYP: Found a simple orthorhombic cell.
 ALAT       =     8.2618827820
 B/A-ratio  =     1.1547003583
 C/A-ratio  =     6.7781160152
  
  Lattice vectors:
  
 A1 = (   8.2618827820,   0.0000000000,   0.0000000000)
 A2 = (   0.0000000000,   9.5399990082,   0.0000000000)
 A3 = (   0.0000000000,   0.0000000000,  56.0000000000)


Analysis of symmetry for initial positions (statically):
=====================================================================
 Subroutine PRICEL returns:
 Original cell was already a primitive cell.
 

 Routine SETGRP: Setting up the symmetry group for a 
 simple orthorhombic supercell.


 Subroutine GETGRP returns: Found  2 space group operations
 (whereof  2 operations were pure point group operations)
 out of a pool of  8 trial point group operations.


The static configuration has the point symmetry C_2 .


Analysis of symmetry for dynamics (positions and initial velocities):
=====================================================================
 Subroutine PRICEL returns:
 Original cell was already a primitive cell.
 

 Routine SETGRP: Setting up the symmetry group for a 
 simple orthorhombic supercell.


 Subroutine GETGRP returns: Found  2 space group operations
 (whereof  2 operations were pure point group operations)
 out of a pool of  8 trial point group operations.


The dynamic configuration has the point symmetry C_2 .


Analysis of structural, dynamic, and magnetic symmetry:
=====================================================================
 Subroutine PRICEL returns:
 Original cell was already a primitive cell.
 

 Routine SETGRP: Setting up the symmetry group for a 
 simple orthorhombic supercell.


 Subroutine GETGRP returns: Found  2 space group operations
 (whereof  2 operations were pure point group operations)
 out of a pool of  8 trial point group operations.


The magnetic configuration has the point symmetry C_2 .


 Subroutine INISYM returns: Found  2 space group operations
 (whereof  2 operations are pure point group operations),
 and found     1 'primitive' translations

 
 
 KPOINTS: KPOINTS File, automatically generated by

Automatic generation of k-mesh.
Space group operators:
 irot       det(A)        alpha          n_x          n_y          n_z        tau_x        tau_y        tau_z
    1     1.000000     0.000000     1.000000     0.000000     0.000000     0.000000     0.000000     0.000000
    2     1.000000   180.000000     0.000000     0.000000     1.000000     0.000000     0.000000     0.000000
 
 Subroutine IBZKPT returns following result:
 ===========================================
 
 Found      5 irreducible k-points:
 
 Following reciprocal coordinates:
            Coordinates               Weight
  0.000000  0.000000  0.000000      1.000000
  0.333333  0.000000  0.000000      2.000000
  0.000000  0.333333  0.000000      2.000000
  0.333333  0.333333  0.000000      2.000000
 -0.333333  0.333333  0.000000      2.000000
 
 Following cartesian coordinates:
            Coordinates               Weight
  0.000000  0.000000  0.000000      1.000000
  0.040346  0.000000  0.000000      2.000000
  0.000000  0.034941  0.000000      2.000000
  0.040346  0.034941  0.000000      2.000000
 -0.040346  0.034941  0.000000      2.000000
 


--------------------------------------------------------------------------------------------------------




 Dimension of arrays:
   k-points           NKPTS =      5   k-points in BZ     NKDIM =      5   number of bands    NBANDS=    918
   number of dos      NEDOS =    301   number of ions     NIONS =    207
   non local maximal  LDIM  =      6   non local SUM 2l+1 LMDIM =     18
   total plane-waves  NPLWV = 537600
   max r-space proj   IRMAX =   1963   max aug-charges    IRDMAX=   7041
   dimension x,y,z NGX =    40 NGY =   48 NGZ =  280
   dimension x,y,z NGXF=    80 NGYF=   96 NGZF=  560
   support grid    NGXF=    80 NGYF=   96 NGZF=  560
   ions per type =              27 120  60
   NGX,Y,Z   is equivalent  to a cutoff of   8.05,  8.36,  8.31 a.u.
   NGXF,Y,Z  is equivalent  to a cutoff of  16.10, 16.73, 16.62 a.u.

 SYSTEM =  Fe-TaSi2                                
 POSCAR =  Fe-TaSi2-180_z1-5                       

 Startparameter for this run:
   NWRITE =      2    write-flag & timer
   PREC   = normal    normal or accurate (medium, high low for compatibility)
   ISTART =      1    job   : 0-new  1-cont  2-samecut
   ICHARG =      0    charge: 1-file 2-atom 10-const
   ISPIN  =      2    spin polarized calculation?
   LNONCOLLINEAR =      F non collinear calculations
   LSORBIT =      F    spin-orbit coupling
   INIWAV =      1    electr: 0-lowe 1-rand  2-diag
   LASPH  =      F    aspherical Exc in radial PAW
   METAGGA=      F    non-selfconsistent MetaGGA calc.

 Electronic Relaxation 1
   ENCUT  =  400.0 eV  29.40 Ry    5.42 a.u.  13.47 15.56 91.32*2*pi/ulx,y,z
   ENINI  =  400.0     initial cutoff
   ENAUG  =  511.4 eV  augmentation charge cutoff
   NELM   =    200;   NELMIN=  2; NELMDL=  0     # of ELM steps 
   EDIFF  = 0.1E-05   stopping-criterion for ELM
   LREAL  =      T    real-space projection
   NLSPLINE    = F    spline interpolate recip. space projectors
   LCOMPAT=      F    compatible to vasp.4.4
   GGA_COMPAT  = T    GGA compatible to vasp.4.4-vasp.4.6
   LMAXPAW     = -100 max onsite density
   LMAXMIX     =    2 max onsite mixed and CHGCAR
   VOSKOWN=      0    Vosko Wilk Nusair interpolation
   ROPT   =   -0.00050  -0.00050  -0.00050
 Ionic relaxation
   EDIFFG = 0.1E-04   stopping-criterion for IOM
   NSW    =      0    number of steps for IOM
   NBLOCK =      1;   KBLOCK =      1    inner block; outer block 
   IBRION =     -1    ionic relax: 0-MD 1-quasi-New 2-CG
   NFREE  =      0    steps in history (QN), initial steepest desc. (CG)
   ISIF   =      2    stress and relaxation
   IWAVPR =     10    prediction:  0-non 1-charg 2-wave 3-comb
   ISYM   =      2    0-nonsym 1-usesym 2-fastsym
   LCORR  =      T    Harris-Foulkes like correction to forces

   POTIM  = 0.5000    time-step for ionic-motion
   TEIN   =    0.0    initial temperature
   TEBEG  =    0.0;   TEEND  =   0.0 temperature during run
   SMASS  =  -3.00    Nose mass-parameter (am)
   estimated Nose-frequenzy (Omega)   =  0.10E-29 period in steps =****** mass=  -0.156E-26a.u.
   SCALEE = 1.0000    scale energy and forces
   NPACO  =    256;   APACO  = 16.0  distance and # of slots for P.C.
   PSTRESS=    0.0 pullay stress

  Mass of Ions in am
   POMASS =  55.85 28.09180.95
  Ionic Valenz
   ZVAL   =   8.00  4.00 11.00
  Atomic Wigner-Seitz radii
   RWIGS  =  -1.00 -1.00 -1.00
  virtual crystal weights 
   VCA    =   1.00  1.00  1.00
   NELECT =    1356.0000    total number of electrons
   NUPDOWN=      -1.0000    fix difference up-down

 DOS related values:
   EMIN   =  10.00;   EMAX   =-10.00  energy-range for DOS
   EFERMI =   0.00
   ISMEAR =     0;   SIGMA  =   0.05  broadening in eV -4-tet -1-fermi 0-gaus

 Electronic relaxation 2 (details)
   IALGO  =      2    algorithm
   LDIAG  =      T    sub-space diagonalisation (order eigenvalues)
   LSUBROT=      F    optimize rotation matrix (better conditioning)
   TURBO    =      0    0=normal 1=particle mesh
   IRESTART =      0    0=no restart 2=restart with 2 vectors
   NREBOOT  =      0    no. of reboots
   NMIN     =      0    reboot dimension
   EREF     =   0.00    reference energy to select bands
   IMIX   =      4    mixing-type and parameters
     AMIX     =   0.02;   BMIX     =  1.00
     AMIX_MAG =   0.08;   BMIX_MAG =  1.00
     AMIN     =   0.01
     WC   =   100.;   INIMIX=   1;  MIXPRE=   1;  MAXMIX= -45

 Intra band minimization:
   WEIMIN = 0.0000     energy-eigenvalue tresh-hold
   EBREAK =  0.27E-09  absolut break condition
   DEPER  =   0.30     relativ break condition  

   TIME   =   0.40     timestep for ELM

  volume/ion in A,a.u.               =      21.32       143.89
  Fermi-wavevector in a.u.,A,eV,Ry     =   1.104646  2.087477 16.602396  1.220242
  Thomas-Fermi vector in A             =   2.241121
 
 Write flags
   LWAVE        =      T    write WAVECAR
   LDOWNSAMPLE  =      F    k-point downsampling of WAVECAR
   LCHARG       =      T    write CHGCAR
   LVTOT        =      F    write LOCPOT, total local potential
   LVHAR        =      F    write LOCPOT, Hartree potential only
   LELF         =      F    write electronic localiz. function (ELF)
   LORBIT       =     11    0 simple, 1 ext, 2 COOP (PROOUT), +10 PAW based schemes


 Dipole corrections
   LMONO  =      F    monopole corrections only (constant potential shift)
   LDIPOL =      T    correct potential (dipole corrections)
   IDIPOL =      3    1-x, 2-y, 3-z, 4-all directions 
   EPSILON=  1.0000000 bulk dielectric constant

 Exchange correlation treatment:
   GGA     =    --    GGA type
   LEXCH   =     8    internal setting for exchange type
   VOSKOWN=      0    Vosko Wilk Nusair interpolation
   LHFCALC =     F    Hartree Fock is set to
   LHFONE  =     F    Hartree Fock one center treatment
   AEXX    =    0.0000 exact exchange contribution

 Linear response parameters
   LEPSILON=     F    determine dielectric tensor
   LRPA    =     F    only Hartree local field effects (RPA)
   LNABLA  =     F    use nabla operator in PAW spheres
   LVEL    =     F    velocity operator in full k-point grid
   LINTERFAST=   F  fast interpolation
   KINTER  =     0    interpolate to denser k-point grid
   CSHIFT  =0.1000    complex shift for real part using Kramers Kronig
   OMEGAMAX=  -1.0    maximum frequency
   DEG_THRESHOLD= 0.2000000E-02 threshold for treating states as degnerate
   RTIME   =   -0.100 relaxation time in fs
  (WPLASMAI=    0.000 imaginary part of plasma frequency in eV, 0.658/RTIME)
   DFIELD  = 0.0000000 0.0000000 0.0000000 field for delta impulse in time
 
 Orbital magnetization related:
   ORBITALMAG=     F  switch on orbital magnetization
   LCHIMAG   =     F  perturbation theory with respect to B field
   DQ        =  0.001000  dq finite difference perturbation B field
   LLRAUG    =     F  two centre corrections for induced B field



--------------------------------------------------------------------------------------------------------


 Static calculation
 charge density and potential will be updated during run
 spin polarized calculation
 None: do nothing, only one-electron occupancies are recalculated
    band-by band algorithm
 perform Loewdin sub-space diagonalisation
    ordering is kept fixed
    before iterative eigenvector-optimisation
 modified Broyden-mixing scheme, WC =      100.0
 initial mixing is a Kerker type mixing with AMIX =  0.0200 and BMIX =      1.0000
 Hartree-type preconditioning will be used
 using additional bands          240
 real space projection scheme for non local part
 use partial core corrections
 calculate Harris-corrections to forces 
   (improved forces if not selfconsistent)
 use gradient corrections 
 use of overlap-Matrix (Vanderbilt PP)
 Gauss-broadening in eV      SIGMA  =   0.05


--------------------------------------------------------------------------------------------------------


  energy-cutoff  :      400.00
  volume of cell :     4413.83
      direct lattice vectors                 reciprocal lattice vectors
     8.261882782  0.000000000  0.000000000     0.121037786  0.000000000  0.000000000
     0.000000000  9.539999008  0.000000000     0.000000000  0.104821814  0.000000000
     0.000000000  0.000000000 56.000000000     0.000000000  0.000000000  0.017857143

  length of vectors
     8.261882782  9.539999008 56.000000000     0.121037786  0.104821814  0.017857143


 
 old parameters found on file WAVECAR:
  energy-cutoff  :      400.00
  volume of cell :     4413.83
      direct lattice vectors                 reciprocal lattice vectors
     8.261882782  0.000000000  0.000000000     0.121037786  0.000000000  0.000000000
     0.000000000  9.539999008  0.000000000     0.000000000  0.104821814  0.000000000
     0.000000000  0.000000000 56.000000000     0.000000000  0.000000000  0.017857143

  length of vectors

 
 k-points in units of 2pi/SCALE and weight: KPOINTS File, automatically generated by
   0.00000000  0.00000000  0.00000000       0.111
   0.04034593  0.00000000  0.00000000       0.222
   0.00000000  0.03494060  0.00000000       0.222
   0.04034593  0.03494060  0.00000000       0.222
  -0.04034593  0.03494060  0.00000000       0.222
 
 k-points in reciprocal lattice and weights: KPOINTS File, automatically generated by
   0.00000000  0.00000000  0.00000000       0.111
   0.33333333  0.00000000  0.00000000       0.222
   0.00000000  0.33333333  0.00000000       0.222
   0.33333333  0.33333333  0.00000000       0.222
  -0.33333333  0.33333333  0.00000000       0.222
 
 position of ions in fractional coordinates (direct lattice) 
   0.00000000  0.00000000  0.00000000
   0.00000000  0.00000000  0.05283321
   0.00000000  0.33333337  0.00000000
   0.00000000  0.33333337  0.05283321
   0.00000000  0.66666663  0.00000000
   0.00000000  0.66666663  0.05283321
   0.33333334  0.00000000  0.00000000
   0.33333334  0.00000000  0.05283321
   0.33333334  0.33333337  0.00000000
   0.33333334  0.33333337  0.05283321
   0.33333334  0.66666663  0.00000000
   0.33333334  0.66666663  0.05283321
   0.66666668  0.00000000  0.00000000
   0.66666668  0.00000000  0.05283321
   0.66666668  0.33333337  0.00000000
   0.66666668  0.33333337  0.05283321
   0.66666668  0.66666663  0.00000000
   0.66666668  0.66666663  0.05283321
   0.16666697  0.16666700  0.02641661
   0.16666697  0.50000037  0.02641661
   0.16666697  0.83333363  0.02641661
   0.50000032  0.16666700  0.02641661
   0.50000032  0.50000037  0.02641661
   0.50000032  0.83333363  0.02641661
   0.83333366  0.16666700  0.02641661
   0.83333366  0.50000037  0.02641661
   0.83333366  0.83333363  0.02641661
   0.92056692  0.11914896  0.13526786
   0.92056692  0.11914896  0.25223214
   0.92056692  0.11914896  0.36919643
   0.92056692  0.11914896  0.48616071
   0.92056692  0.11914896  0.60312500
   0.92056692  0.61914902  0.13526786
   0.92056692  0.61914902  0.25223214
   0.92056692  0.61914902  0.36919643
   0.92056692  0.61914902  0.48616071
   0.92056692  0.61914902  0.60312500
   0.42056697  0.13085096  0.09627980
   0.42056697  0.13085096  0.21324409
   0.42056697  0.13085096  0.33020837
   0.42056697  0.13085096  0.44717266
   0.42056697  0.13085096  0.56413695
   0.42056697  0.63085101  0.09627980
   0.42056697  0.63085101  0.21324409
   0.42056697  0.63085101  0.33020837
   0.42056697  0.63085101  0.44717266
   0.42056697  0.63085101  0.56413695
   0.65886495  0.25000003  0.17425591
   0.65886495  0.25000003  0.29122020
   0.65886495  0.25000003  0.40818448
   0.65886495  0.25000003  0.52514877
   0.65886495  0.25000003  0.64211305
   0.65886495  0.74999997  0.17425591
   0.65886495  0.74999997  0.29122020
   0.65886495  0.74999997  0.40818448
   0.65886495  0.74999997  0.52514877
   0.65886495  0.74999997  0.64211305
   0.07943298  0.38085098  0.13526786
   0.07943298  0.38085098  0.25223214
   0.07943298  0.38085098  0.36919643
   0.07943298  0.38085098  0.48616071
   0.07943298  0.38085098  0.60312500
   0.07943298  0.88085103  0.13526786
   0.07943298  0.88085103  0.25223214
   0.07943298  0.88085103  0.36919643
   0.07943298  0.88085103  0.48616071
   0.07943298  0.88085103  0.60312500
   0.57943306  0.36914899  0.09627980
   0.57943306  0.36914899  0.21324409
   0.57943306  0.36914899  0.33020837
   0.57943306  0.36914899  0.44717266
   0.57943306  0.36914899  0.56413695
   0.57943306  0.86914904  0.09627980
   0.57943306  0.86914904  0.21324409
   0.57943306  0.86914904  0.33020837
   0.57943306  0.86914904  0.44717266
   0.57943306  0.86914904  0.56413695
   0.34113495  0.25000003  0.17425591
   0.34113495  0.25000003  0.29122020
   0.34113495  0.25000003  0.40818448
   0.34113495  0.25000003  0.52514877
   0.34113495  0.25000003  0.64211305
   0.34113495  0.74999997  0.17425591
   0.34113495  0.74999997  0.29122020
   0.34113495  0.74999997  0.40818448
   0.34113495  0.74999997  0.52514877
   0.34113495  0.74999997  0.64211305
   0.07943298  0.11914896  0.09627980
   0.07943298  0.11914896  0.21324409
   0.07943298  0.11914896  0.33020837
   0.07943298  0.11914896  0.44717266
   0.07943298  0.11914896  0.56413695
   0.07943298  0.61914902  0.09627980
   0.07943298  0.61914902  0.21324409
   0.07943298  0.61914902  0.33020837
   0.07943298  0.61914902  0.44717266
   0.07943298  0.61914902  0.56413695
   0.57943306  0.13085096  0.13526786
   0.57943306  0.13085096  0.25223214
   0.57943306  0.13085096  0.36919643
   0.57943306  0.13085096  0.48616071
   0.57943306  0.13085096  0.60312500
   0.57943306  0.63085101  0.13526786
   0.57943306  0.63085101  0.25223214
   0.57943306  0.63085101  0.36919643
   0.57943306  0.63085101  0.48616071
   0.57943306  0.63085101  0.60312500
   0.92056692  0.38085098  0.09627980
   0.92056692  0.38085098  0.21324409
   0.92056692  0.38085098  0.33020837
   0.92056692  0.38085098  0.44717266
   0.92056692  0.38085098  0.56413695
   0.92056692  0.88085103  0.09627980
   0.92056692  0.88085103  0.21324409
   0.92056692  0.88085103  0.33020837
   0.92056692  0.88085103  0.44717266
   0.92056692  0.88085103  0.56413695
   0.42056697  0.36914899  0.13526786
   0.42056697  0.36914899  0.25223214
   0.42056697  0.36914899  0.36919643
   0.42056697  0.36914899  0.48616071
   0.42056697  0.36914899  0.60312500
   0.42056697  0.86914904  0.13526786
   0.42056697  0.86914904  0.25223214
   0.42056697  0.86914904  0.36919643
   0.42056697  0.86914904  0.48616071
   0.42056697  0.86914904  0.60312500
   0.15886500  0.00000000  0.17425591
   0.15886500  0.00000000  0.29122020
   0.15886500  0.00000000  0.40818448
   0.15886500  0.00000000  0.52514877
   0.15886500  0.00000000  0.64211305
   0.15886500  0.50000005  0.17425591
   0.15886500  0.50000005  0.29122020
   0.15886500  0.50000005  0.40818448
   0.15886500  0.50000005  0.52514877
   0.15886500  0.50000005  0.64211305
   0.84113503  0.00000000  0.17425591
   0.84113503  0.00000000  0.29122020
   0.84113503  0.00000000  0.40818448
   0.84113503  0.00000000  0.52514877
   0.84113503  0.00000000  0.64211305
   0.84113503  0.50000005  0.17425591
   0.84113503  0.50000005  0.29122020
   0.84113503  0.50000005  0.40818448
   0.84113503  0.50000005  0.52514877
   0.84113503  0.50000005  0.64211305
   0.25000004  0.12500001  0.13526786
   0.25000004  0.12500001  0.25223214
   0.25000004  0.12500001  0.36919643
   0.25000004  0.12500001  0.48616071
   0.25000004  0.12500001  0.60312500
   0.25000004  0.62499996  0.13526786
   0.25000004  0.62499996  0.25223214
   0.25000004  0.62499996  0.36919643
   0.25000004  0.62499996  0.48616071
   0.25000004  0.62499996  0.60312500
   0.74999999  0.12500001  0.09627980
   0.74999999  0.12500001  0.21324409
   0.74999999  0.12500001  0.33020837
   0.74999999  0.12500001  0.44717266
   0.74999999  0.12500001  0.56413695
   0.74999999  0.62499996  0.09627980
   0.74999999  0.62499996  0.21324409
   0.74999999  0.62499996  0.33020837
   0.74999999  0.62499996  0.44717266
   0.74999999  0.62499996  0.56413695
   0.00000000  0.25000003  0.17425591
   0.00000000  0.25000003  0.29122020
   0.00000000  0.25000003  0.40818448
   0.00000000  0.25000003  0.52514877
   0.00000000  0.25000003  0.64211305
   0.00000000  0.74999997  0.17425591
   0.00000000  0.74999997  0.29122020
   0.00000000  0.74999997  0.40818448
   0.00000000  0.74999997  0.52514877
   0.00000000  0.74999997  0.64211305
   0.74999999  0.37500004  0.13526786
   0.74999999  0.37500004  0.25223214
   0.74999999  0.37500004  0.36919643
   0.74999999  0.37500004  0.48616071
   0.74999999  0.37500004  0.60312500
   0.74999999  0.87499999  0.13526786
   0.74999999  0.87499999  0.25223214
   0.74999999  0.87499999  0.36919643
   0.74999999  0.87499999  0.48616071
   0.74999999  0.87499999  0.60312500
   0.25000004  0.37500004  0.09627980
   0.25000004  0.37500004  0.21324409
   0.25000004  0.37500004  0.33020837
   0.25000004  0.37500004  0.44717266
   0.25000004  0.37500004  0.56413695
   0.25000004  0.87499999  0.09627980
   0.25000004  0.87499999  0.21324409
   0.25000004  0.87499999  0.33020837
   0.25000004  0.87499999  0.44717266
   0.25000004  0.87499999  0.56413695
   0.49999995  0.00000000  0.17425591
   0.49999995  0.00000000  0.29122020
   0.49999995  0.00000000  0.40818448
   0.49999995  0.00000000  0.52514877
   0.49999995  0.00000000  0.64211305
   0.49999995  0.50000005  0.17425591
   0.49999995  0.50000005  0.29122020
   0.49999995  0.50000005  0.40818448
   0.49999995  0.50000005  0.52514877
   0.49999995  0.50000005  0.64211305
 
 position of ions in cartesian coordinates  (Angst):
   0.00000000  0.00000000  0.00000000
   0.00000000  0.00000000  2.95866000
   0.00000000  3.18000000  0.00000000
   0.00000000  3.18000000  2.95866000
   0.00000000  6.35999900  0.00000000
   0.00000000  6.35999900  2.95866000
   2.75396100  0.00000000  0.00000000
   2.75396100  0.00000000  2.95866000
   2.75396100  3.18000000  0.00000000
   2.75396100  3.18000000  2.95866000
   2.75396100  6.35999900  0.00000000
   2.75396100  6.35999900  2.95866000
   5.50792200  0.00000000  0.00000000
   5.50792200  0.00000000  2.95866000
   5.50792200  3.18000000  0.00000000
   5.50792200  3.18000000  2.95866000
   5.50792200  6.35999900  0.00000000
   5.50792200  6.35999900  2.95866000
   1.37698300  1.59000300  1.47933000
   1.37698300  4.77000300  1.47933000
   1.37698300  7.95000200  1.47933000
   4.13094400  1.59000300  1.47933000
   4.13094400  4.77000300  1.47933000
   4.13094400  7.95000200  1.47933000
   6.88490500  1.59000300  1.47933000
   6.88490500  4.77000300  1.47933000
   6.88490500  7.95000200  1.47933000
   7.60561600  1.13668100  7.57500000
   7.60561600  1.13668100 14.12500000
   7.60561600  1.13668100 20.67500000
   7.60561600  1.13668100 27.22500000
   7.60561600  1.13668100 33.77500000
   7.60561600  5.90668100  7.57500000
   7.60561600  5.90668100 14.12500000
   7.60561600  5.90668100 20.67500000
   7.60561600  5.90668100 27.22500000
   7.60561600  5.90668100 33.77500000
   3.47467500  1.24831800  5.39166900
   3.47467500  1.24831800 11.94166900
   3.47467500  1.24831800 18.49166900
   3.47467500  1.24831800 25.04166900
   3.47467500  1.24831800 31.59166900
   3.47467500  6.01831800  5.39166900
   3.47467500  6.01831800 11.94166900
   3.47467500  6.01831800 18.49166900
   3.47467500  6.01831800 25.04166900
   3.47467500  6.01831800 31.59166900
   5.44346500  2.38500000  9.75833100
   5.44346500  2.38500000 16.30833100
   5.44346500  2.38500000 22.85833100
   5.44346500  2.38500000 29.40833100
   5.44346500  2.38500000 35.95833100
   5.44346500  7.15499900  9.75833100
   5.44346500  7.15499900 16.30833100
   5.44346500  7.15499900 22.85833100
   5.44346500  7.15499900 29.40833100
   5.44346500  7.15499900 35.95833100
   0.65626600  3.63331800  7.57500000
   0.65626600  3.63331800 14.12500000
   0.65626600  3.63331800 20.67500000
   0.65626600  3.63331800 27.22500000
   0.65626600  3.63331800 33.77500000
   0.65626600  8.40331800  7.57500000
   0.65626600  8.40331800 14.12500000
   0.65626600  8.40331800 20.67500000
   0.65626600  8.40331800 27.22500000
   0.65626600  8.40331800 33.77500000
   4.78720800  3.52168100  5.39166900
   4.78720800  3.52168100 11.94166900
   4.78720800  3.52168100 18.49166900
   4.78720800  3.52168100 25.04166900
   4.78720800  3.52168100 31.59166900
   4.78720800  8.29168100  5.39166900
   4.78720800  8.29168100 11.94166900
   4.78720800  8.29168100 18.49166900
   4.78720800  8.29168100 25.04166900
   4.78720800  8.29168100 31.59166900
   2.81841700  2.38500000  9.75833100
   2.81841700  2.38500000 16.30833100
   2.81841700  2.38500000 22.85833100
   2.81841700  2.38500000 29.40833100
   2.81841700  2.38500000 35.95833100
   2.81841700  7.15499900  9.75833100
   2.81841700  7.15499900 16.30833100
   2.81841700  7.15499900 22.85833100
   2.81841700  7.15499900 29.40833100
   2.81841700  7.15499900 35.95833100
   0.65626600  1.13668100  5.39166900
   0.65626600  1.13668100 11.94166900
   0.65626600  1.13668100 18.49166900
   0.65626600  1.13668100 25.04166900
   0.65626600  1.13668100 31.59166900
   0.65626600  5.90668100  5.39166900
   0.65626600  5.90668100 11.94166900
   0.65626600  5.90668100 18.49166900
   0.65626600  5.90668100 25.04166900
   0.65626600  5.90668100 31.59166900
   4.78720800  1.24831800  7.57500000
   4.78720800  1.24831800 14.12500000
   4.78720800  1.24831800 20.67500000
   4.78720800  1.24831800 27.22500000
   4.78720800  1.24831800 33.77500000
   4.78720800  6.01831800  7.57500000
   4.78720800  6.01831800 14.12500000
   4.78720800  6.01831800 20.67500000
   4.78720800  6.01831800 27.22500000
   4.78720800  6.01831800 33.77500000
   7.60561600  3.63331800  5.39166900
   7.60561600  3.63331800 11.94166900
   7.60561600  3.63331800 18.49166900
   7.60561600  3.63331800 25.04166900
   7.60561600  3.63331800 31.59166900
   7.60561600  8.40331800  5.39166900
   7.60561600  8.40331800 11.94166900
   7.60561600  8.40331800 18.49166900
   7.60561600  8.40331800 25.04166900
   7.60561600  8.40331800 31.59166900
   3.47467500  3.52168100  7.57500000
   3.47467500  3.52168100 14.12500000
   3.47467500  3.52168100 20.67500000
   3.47467500  3.52168100 27.22500000
   3.47467500  3.52168100 33.77500000
   3.47467500  8.29168100  7.57500000
   3.47467500  8.29168100 14.12500000
   3.47467500  8.29168100 20.67500000
   3.47467500  8.29168100 27.22500000
   3.47467500  8.29168100 33.77500000
   1.31252400  0.00000000  9.75833100
   1.31252400  0.00000000 16.30833100
   1.31252400  0.00000000 22.85833100
   1.31252400  0.00000000 29.40833100
   1.31252400  0.00000000 35.95833100
   1.31252400  4.77000000  9.75833100
   1.31252400  4.77000000 16.30833100
   1.31252400  4.77000000 22.85833100
   1.31252400  4.77000000 29.40833100
   1.31252400  4.77000000 35.95833100
   6.94935900  0.00000000  9.75833100
   6.94935900  0.00000000 16.30833100
   6.94935900  0.00000000 22.85833100
   6.94935900  0.00000000 29.40833100
   6.94935900  0.00000000 35.95833100
   6.94935900  4.77000000  9.75833100
   6.94935900  4.77000000 16.30833100
   6.94935900  4.77000000 22.85833100
   6.94935900  4.77000000 29.40833100
   6.94935900  4.77000000 35.95833100
   2.06547100  1.19250000  7.57500000
   2.06547100  1.19250000 14.12500000
   2.06547100  1.19250000 20.67500000
   2.06547100  1.19250000 27.22500000
   2.06547100  1.19250000 33.77500000
   2.06547100  5.96249900  7.57500000
   2.06547100  5.96249900 14.12500000
   2.06547100  5.96249900 20.67500000
   2.06547100  5.96249900 27.22500000
   2.06547100  5.96249900 33.77500000
   6.19641200  1.19250000  5.39166900
   6.19641200  1.19250000 11.94166900
   6.19641200  1.19250000 18.49166900
   6.19641200  1.19250000 25.04166900
   6.19641200  1.19250000 31.59166900
   6.19641200  5.96249900  5.39166900
   6.19641200  5.96249900 11.94166900
   6.19641200  5.96249900 18.49166900
   6.19641200  5.96249900 25.04166900
   6.19641200  5.96249900 31.59166900
   0.00000000  2.38500000  9.75833100
   0.00000000  2.38500000 16.30833100
   0.00000000  2.38500000 22.85833100
   0.00000000  2.38500000 29.40833100
   0.00000000  2.38500000 35.95833100
   0.00000000  7.15499900  9.75833100
   0.00000000  7.15499900 16.30833100
   0.00000000  7.15499900 22.85833100
   0.00000000  7.15499900 29.40833100
   0.00000000  7.15499900 35.95833100
   6.19641200  3.57750000  7.57500000
   6.19641200  3.57750000 14.12500000
   6.19641200  3.57750000 20.67500000
   6.19641200  3.57750000 27.22500000
   6.19641200  3.57750000 33.77500000
   6.19641200  8.34749900  7.57500000
   6.19641200  8.34749900 14.12500000
   6.19641200  8.34749900 20.67500000
   6.19641200  8.34749900 27.22500000
   6.19641200  8.34749900 33.77500000
   2.06547100  3.57750000  5.39166900
   2.06547100  3.57750000 11.94166900
   2.06547100  3.57750000 18.49166900
   2.06547100  3.57750000 25.04166900
   2.06547100  3.57750000 31.59166900
   2.06547100  8.34749900  5.39166900
   2.06547100  8.34749900 11.94166900
   2.06547100  8.34749900 18.49166900
   2.06547100  8.34749900 25.04166900
   2.06547100  8.34749900 31.59166900
   4.13094100  0.00000000  9.75833100
   4.13094100  0.00000000 16.30833100
   4.13094100  0.00000000 22.85833100
   4.13094100  0.00000000 29.40833100
   4.13094100  0.00000000 35.95833100
   4.13094100  4.77000000  9.75833100
   4.13094100  4.77000000 16.30833100
   4.13094100  4.77000000 22.85833100
   4.13094100  4.77000000 29.40833100
   4.13094100  4.77000000 35.95833100
 


--------------------------------------------------------------------------------------------------------


 k-point  1 :   0.0000 0.0000 0.0000  plane waves:   80299
 k-point  2 :   0.3333 0.0000 0.0000  plane waves:   80183
 k-point  3 :   0.0000 0.3333 0.0000  plane waves:   80219
 k-point  4 :   0.3333 0.3333 0.0000  plane waves:   80134
 k-point  5 :  -0.3333 0.3333 0.0000  plane waves:   80134

 maximum and minimum number of plane-waves per node :     20145    19993

 maximum number of plane-waves:     80299
 maximum index in each direction: 
   IXMAX=   13   IYMAX=   15   IZMAX=   91
   IXMIN=  -13   IYMIN=  -15   IZMIN=  -91


 real space projection operators:
  total allocation   :      29029.80 KBytes
  max/ min on nodes  :       7313.92       7225.45


 parallel 3D FFT for wavefunctions:
    minimum data exchange during FFTs selected (reduces bandwidth)
 parallel 3D FFT for charge:
    minimum data exchange during FFTs selected (reduces bandwidth)


 total amount of memory used by VASP MPI-rank0  1125521. kBytes
=======================================================================

   base      :      30000. kBytes
   nonlr-proj:      15809. kBytes
   fftplans  :      16678. kBytes
   grid      :      43980. kBytes
   one-center:       1617. kBytes
   wavefun   :    1017437. kBytes
 
     INWAV:  cpu time   70.3343: real time  326.3872
 Broyden mixing: mesh for mixing (old mesh)
   NGX = 27   NGY = 31   NGZ =183
  (NGX  = 80   NGY  = 96   NGZ  =560)
  gives a total of 153171 points

 charge density for first step will be calculated from the start-wavefunctions


--------------------------------------------------------------------------------------------------------


 Maximum index for non-local projection operator          492
 Maximum index for augmentation-charges          662 (set IRDMAX)


--------------------------------------------------------------------------------------------------------


 initial charge from wavefunction
 First call to EWALD:  gamma=   0.108
 Maximum number of real-space cells 5x 4x 1
 Maximum number of reciprocal cells 2x 2x 8

    FEWALD:  cpu time    0.0330: real time    0.0329


--------------------------------------- Iteration      1(   1)  ---------------------------------------


    POTLOK:  cpu time    1.0268: real time    1.0505
    SETDIJ:  cpu time    0.1780: real time    0.1780
    EDDIAG:  cpu time    0.0000: real time    0.0000
       DOS:  cpu time    0.0160: real time    0.0160
    CHARGE:  cpu time   13.3730: real time   13.3741
    MIXING:  cpu time    0.0150: real time    0.0153
    --------------------------------------------
      LOOP:  cpu time   14.6088: real time   14.6340

 eigenvalue-minimisations  :     0
 total energy-change (2. order) :-0.9450251E+03  ( 0.0000000E+00)
 number of electron    1356.0000767 magnetization      74.5111543
 augmentation part      289.8264822 magnetization      58.5590290

 DIPCOR: dipole corrections for dipol
 direction  3 min pos   454,
 dipolmoment           0.000000      0.000000    -27.875031 electrons x Angstroem
 Tr[quadrupol]    -17980.777999

 energy correction for charged system         0.000000 eV
 dipol+quadrupol energy correction          -15.927644 eV
 added-field ion interaction        491.668284 eV  (added to PSCEN)


 Broyden mixing:
  rms(total) = 0.20099E-13    rms(broyden)= 0.10029E-13
  rms(prec ) = 0.12114E-13
  weight for this iteration     100.00
  WARNING: grid for Broyden might be to small

 Free energy of the ion-electron system (eV)
  ---------------------------------------------------
  alpha Z        PSCENC =      5344.25444921
  Ewald energy   TEWEN  =    864980.89743273
  -Hartree energ DENC   =   -955633.86214233
  -exchange      EXHF   =         0.00000000
  -V(xc)+E(xc)   XCENC  =       488.45585640
  PAW double counting   =    180310.75783940  -177600.89783516
  entropy T*S    EENTRO =        -0.14654334
  eigenvalues    EBANDS =    -10080.27730588
  atomic energy  EATOM  =     91245.79315485
  Solvation  Ediel_sol  =         0.00000000
  ---------------------------------------------------
  free energy    TOTEN  =      -945.02509413 eV

  energy without entropy =     -944.87855079  energy(sigma->0) =     -944.95182246


--------------------------------------------------------------------------------------------------------




[...]
--------------------------------------------------
tot         -0.024  -0.875  74.605  73.706
 


--------------------------------------------------------------------------------------------------------



  FREE ENERGIE OF THE ION-ELECTRON SYSTEM (eV)
  ---------------------------------------------------
  free  energy   TOTEN  =      -945.02509417 eV

  energy  without entropy=     -944.87855083  energy(sigma->0) =     -944.95182250
 


--------------------------------------------------------------------------------------------------------




--------------------------------------------------------------------------------------------------------


 writing wavefunctions
     LOOP+:  cpu time   75.5115: real time  140.4683
    4ORBIT:  cpu time    0.0000: real time    0.0000
 


 total charge     
 
# of ion       s       p       d       tot
------------------------------------------
    1        0.424   0.278   6.126   6.829
    2        0.400   0.353   6.134   6.887
    3        0.425   0.278   6.130   6.833
    4        0.408   0.350   6.136   6.894
    5        0.425   0.278   6.130   6.833
    6        0.408   0.350   6.136   6.894
    7        0.425   0.278   6.130   6.833
    8        0.421   0.357   6.137   6.915
    9        0.427   0.275   6.130   6.832
   10        0.444   0.356   6.171   6.971
   11        0.423   0.277   6.128   6.828
   12        0.409   0.360   6.133   6.901
   13        0.425   0.278   6.130   6.833
   14        0.421   0.357   6.137   6.915
   15        0.423   0.277   6.128   6.828
   16        0.409   0.360   6.133   6.901
   17        0.427   0.275   6.130   6.832
   18        0.444   0.356   6.171   6.971
   19        0.443   0.420   6.179   7.041
   20        0.441   0.422   6.176   7.039
   21        0.441   0.423   6.172   7.036
   22        0.446   0.419   6.179   7.043
   23        0.445   0.420   6.176   7.042
   24        0.446   0.419   6.179   7.043
   25        0.441   0.423   6.172   7.036
   26        0.441   0.422   6.176   7.039
   27        0.443   0.420   6.179   7.041
   28        0.753   0.889   0.000   1.642
   29        0.752   0.890   0.000   1.643
   30        0.752   0.890   0.000   1.642
   31        0.752   0.890   0.000   1.642
   32        0.752   0.884   0.000   1.636
   33        0.754   0.888   0.000   1.642
   34        0.752   0.890   0.000   1.643
   35        0.752   0.890   0.000   1.642
   36        0.752   0.890   0.000   1.642
   37        0.752   0.884   0.000   1.636
   38        0.762   0.821   0.000   1.583
   39        0.753   0.890   0.000   1.643
   40        0.752   0.889   0.000   1.641
   41        0.752   0.890   0.000   1.642
   42        0.752   0.887   0.000   1.639
   43        0.756   0.850   0.000   1.606
   44        0.752   0.890   0.000   1.643
   45        0.752   0.889   0.000   1.641
   46        0.752   0.890   0.000   1.642
   47        0.752   0.887   0.000   1.639
   48        0.753   0.891   0.000   1.643
   49        0.752   0.890   0.000   1.642
   50        0.752   0.890   0.000   1.642
   51        0.752   0.891   0.000   1.643
   52        0.766   0.821   0.000   1.587
   53        0.753   0.890   0.000   1.643
   54        0.752   0.891   0.000   1.642
   55        0.752   0.890   0.000   1.642
   56        0.752   0.891   0.000   1.643
   57        0.766   0.821   0.000   1.587
   58        0.754   0.888   0.000   1.642
   59        0.752   0.890   0.000   1.643
   60        0.752   0.890   0.000   1.642
   61        0.752   0.890   0.000   1.642
   62        0.752   0.884   0.000   1.636
   63        0.753   0.889   0.000   1.642
   64        0.752   0.890   0.000   1.643
   65        0.752   0.890   0.000   1.642
   66        0.752   0.890   0.000   1.642
   67        0.752   0.884   0.000   1.636
   68        0.756   0.850   0.000   1.606
   69        0.752   0.890   0.000   1.643
   70        0.752   0.889   0.000   1.641
   71        0.752   0.890   0.000   1.642
   72        0.752   0.887   0.000   1.639
   73        0.762   0.821   0.000   1.583
   74        0.753   0.890   0.000   1.643
   75        0.752   0.889   0.000   1.641
   76        0.752   0.890   0.000   1.642
   77        0.752   0.887   0.000   1.639
   78        0.753   0.890   0.000   1.643
   79        0.752   0.891   0.000   1.642
   80        0.752   0.890   0.000   1.642
   81        0.752   0.891   0.000   1.643
   82        0.766   0.821   0.000   1.587
   83        0.753   0.891   0.000   1.643
   84        0.752   0.890   0.000   1.642
   85        0.752   0.890   0.000   1.642
   86        0.752   0.891   0.000   1.643
   87        0.766   0.821   0.000   1.587
   88        0.766   0.823   0.000   1.589
   89        0.753   0.890   0.000   1.643
   90        0.752   0.889   0.000   1.641
   91        0.752   0.890   0.000   1.642
   92        0.752   0.887   0.000   1.639
   93        0.764   0.849   0.000   1.613
   94        0.752   0.891   0.000   1.643
   95        0.752   0.889   0.000   1.641
   96        0.752   0.890   0.000   1.642
   97        0.752   0.887   0.000   1.639
   98        0.755   0.887   0.000   1.641
   99        0.752   0.890   0.000   1.643
  100        0.752   0.890   0.000   1.642
  101        0.752   0.890   0.000   1.642
  102        0.752   0.884   0.000   1.636
  103        0.754   0.887   0.000   1.641
  104        0.752   0.890   0.000   1.643
  105        0.752   0.890   0.000   1.641
  106        0.752   0.890   0.000   1.642
  107        0.752   0.884   0.000   1.636
  108        0.764   0.849   0.000   1.613
  109        0.752   0.891   0.000   1.643
  110        0.752   0.889   0.000   1.641
  111        0.752   0.890   0.000   1.642
  112        0.752   0.887   0.000   1.639
  113        0.766   0.823   0.000   1.589
  114        0.753   0.890   0.000   1.643
  115        0.752   0.889   0.000   1.641
  116        0.752   0.890   0.000   1.642
  117        0.752   0.887   0.000   1.639
  118        0.754   0.887   0.000   1.641
  119        0.752   0.890   0.000   1.643
  120        0.752   0.890   0.000   1.641
  121        0.752   0.890   0.000   1.642
  122        0.752   0.884   0.000   1.636
  123        0.755   0.887   0.000   1.641
  124        0.752   0.890   0.000   1.643
  125        0.752   0.890   0.000   1.642
  126        0.752   0.890   0.000   1.642
  127        0.752   0.884   0.000   1.636
  128        0.753   0.890   0.000   1.642
  129        0.752   0.891   0.000   1.643
  130        0.752   0.890   0.000   1.642
  131        0.752   0.891   0.000   1.643
  132        0.766   0.821   0.000   1.587
  133        0.753   0.889   0.000   1.642
  134        0.752   0.891   0.000   1.643
  135        0.752   0.890   0.000   1.642
  136        0.752   0.891   0.000   1.643
  137        0.766   0.822   0.000   1.587
  138        0.753   0.890   0.000   1.642
  139        0.752   0.891   0.000   1.643
  140        0.752   0.890   0.000   1.642
  141        0.752   0.891   0.000   1.643
  142        0.766   0.821   0.000   1.587
  143        0.753   0.889   0.000   1.642
  144        0.752   0.891   0.000   1.643
  145        0.752   0.890   0.000   1.642
  146        0.752   0.891   0.000   1.643
  147        0.766   0.822   0.000   1.587
  148        0.294   6.199   2.532   9.025
  149        0.290   6.199   2.538   9.027
  150        0.289   6.198   2.527   9.014
  151        0.290   6.199   2.537   9.026
  152        0.297   6.199   2.495   8.991
  153        0.295   6.200   2.529   9.023
  154        0.290   6.199   2.539   9.028
  155        0.289   6.198   2.527   9.015
  156        0.290   6.199   2.537   9.025
  157        0.297   6.199   2.494   8.990
  158        0.298   6.160   2.425   8.883
  159        0.290   6.199   2.535   9.024
  160        0.289   6.198   2.534   9.022
  161        0.289   6.199   2.534   9.022
  162        0.290   6.198   2.523   9.011
  163        0.312   6.166   2.459   8.937
  164        0.290   6.199   2.535   9.024
  165        0.289   6.198   2.534   9.022
  166        0.290   6.199   2.534   9.022
  167        0.290   6.198   2.524   9.012
  168        0.290   6.199   2.534   9.023
  169        0.290   6.199   2.541   9.029
  170        0.289   6.198   2.531   9.018
  171        0.290   6.198   2.527   9.016
  172        0.292   6.121   2.426   8.840
  173        0.290   6.199   2.534   9.023
  174        0.290   6.199   2.541   9.029
  175        0.289   6.198   2.531   9.018
  176        0.290   6.198   2.527   9.016
  177        0.292   6.121   2.426   8.840
  178        0.295   6.200   2.529   9.023
  179        0.290   6.199   2.539   9.028
  180        0.289   6.198   2.527   9.015
  181        0.290   6.199   2.537   9.025
  182        0.297   6.199   2.494   8.990
  183        0.294   6.199   2.532   9.025
  184        0.290   6.199   2.538   9.027
  185        0.289   6.198   2.527   9.014
  186        0.290   6.199   2.537   9.026
  187        0.297   6.199   2.495   8.991
  188        0.312   6.166   2.459   8.937
  189        0.290   6.199   2.535   9.024
  190        0.289   6.198   2.534   9.022
  191        0.290   6.199   2.534   9.022
  192        0.290   6.198   2.524   9.012
  193        0.298   6.160   2.425   8.883
  194        0.290   6.199   2.535   9.024
  195        0.289   6.198   2.534   9.022
  196        0.289   6.199   2.534   9.022
  197        0.290   6.198   2.523   9.011
  198        0.290   6.199   2.535   9.024
  199        0.289   6.199   2.542   9.030
  200        0.289   6.198   2.531   9.018
  201        0.290   6.198   2.527   9.016
  202        0.292   6.121   2.426   8.839
  203        0.290   6.199   2.535   9.025
  204        0.289   6.199   2.541   9.029
  205        0.289   6.198   2.531   9.018
  206        0.290   6.198   2.528   9.017
  207        0.292   6.121   2.426   8.839
--------------------------------------------------
tot        119.535 486.678 317.056 923.270
 


 magnetization (x)
 
# of ion       s       p       d       tot
------------------------------------------
    1        0.016   0.005   2.980   3.001
    2        0.001  -0.021   2.741   2.722
    3        0.018   0.004   2.975   2.997
    4        0.002  -0.021   2.772   2.753
    5        0.018   0.004   2.975   2.997
    6        0.002  -0.021   2.772   2.753
    7        0.016   0.004   2.975   2.995
    8        0.001  -0.030   2.704   2.675
    9        0.015   0.002   2.969   2.987
   10        0.001  -0.047   2.581   2.535
   11        0.014   0.003   2.980   2.997
   12        0.000  -0.023   2.712   2.689
   13        0.016   0.004   2.975   2.995
   14        0.001  -0.030   2.704   2.675
   15        0.014   0.003   2.980   2.997
   16        0.000  -0.023   2.712   2.689
   17        0.015   0.002   2.969   2.987
   18        0.001  -0.047   2.581   2.535
   19       -0.016  -0.049   2.701   2.636
   20       -0.015  -0.045   2.690   2.630
   21       -0.013  -0.042   2.684   2.629
   22       -0.012  -0.048   2.682   2.622
   23       -0.014  -0.050   2.662   2.598
   24       -0.012  -0.048   2.682   2.622
   25       -0.013  -0.042   2.684   2.629
   26       -0.015  -0.045   2.690   2.630
   27       -0.016  -0.049   2.701   2.636
   28        0.002   0.001   0.000   0.002
   29        0.000  -0.000   0.000  -0.000
   30        0.000   0.000   0.000   0.000
   31        0.000   0.000   0.000   0.000
   32       -0.000   0.001   0.000   0.001
   33        0.002   0.000   0.000   0.002
   34        0.000  -0.000   0.000  -0.000
   35        0.000   0.000   0.000   0.000
   36        0.000  -0.000   0.000   0.000
   37       -0.000   0.001   0.000   0.001
   38       -0.005  -0.028   0.000  -0.033
   39        0.000   0.000   0.000   0.000
   40        0.000  -0.000   0.000  -0.000
   41       -0.000  -0.000   0.000  -0.000
   42        0.000   0.000   0.000   0.000
   43       -0.008  -0.036   0.000  -0.043
   44        0.000   0.000   0.000   0.000
   45        0.000   0.000   0.000   0.000
   46       -0.000  -0.000   0.000  -0.000
   47        0.000   0.000   0.000   0.000
   48       -0.000  -0.001   0.000  -0.001
   49        0.000   0.000   0.000   0.000
   50       -0.000  -0.000   0.000  -0.000
   51        0.000  -0.000   0.000   0.000
   52        0.003   0.007   0.000   0.010
   53       -0.000  -0.000   0.000  -0.001
   54        0.000   0.000   0.000   0.000
   55        0.000  -0.000   0.000  -0.000
   56        0.000  -0.000   0.000   0.000
   57        0.003   0.007   0.000   0.010
   58        0.002   0.000   0.000   0.002
   59        0.000  -0.000   0.000  -0.000
   60        0.000   0.000   0.000   0.000
   61        0.000  -0.000   0.000   0.000
   62       -0.000   0.001   0.000   0.001
   63        0.002   0.001   0.000   0.002
   64        0.000  -0.000   0.000  -0.000
   65        0.000   0.000   0.000   0.000
   66        0.000   0.000   0.000   0.000
   67       -0.000   0.001   0.000   0.001
   68       -0.008  -0.036   0.000  -0.043
   69        0.000   0.000   0.000   0.000
   70        0.000   0.000   0.000   0.000
   71       -0.000  -0.000   0.000  -0.000
   72        0.000   0.000   0.000   0.000
   73       -0.005  -0.028   0.000  -0.033
   74        0.000   0.000   0.000   0.000
   75        0.000  -0.000   0.000  -0.000
   76       -0.000  -0.000   0.000  -0.000
   77        0.000   0.000   0.000   0.000
   78       -0.000  -0.000   0.000  -0.001
   79        0.000   0.000   0.000   0.000
   80        0.000  -0.000   0.000  -0.000
   81        0.000  -0.000   0.000   0.000
   82        0.003   0.007   0.000   0.010
   83       -0.000  -0.001   0.000  -0.001
   84        0.000   0.000   0.000   0.000
   85       -0.000  -0.000   0.000  -0.000
   86        0.000  -0.000   0.000   0.000
   87        0.003   0.007   0.000   0.010
   88       -0.006  -0.023   0.000  -0.029
   89        0.000   0.000   0.000   0.001
   90       -0.000   0.000   0.000   0.000
   91       -0.000  -0.000   0.000  -0.000
   92        0.000   0.000   0.000   0.000
   93       -0.008  -0.031   0.000  -0.038
   94        0.000  -0.000   0.000   0.000
   95       -0.000  -0.000   0.000  -0.000
   96       -0.000  -0.000   0.000  -0.000
   97        0.000   0.000   0.000   0.000
   98        0.000  -0.000   0.000   0.000
   99       -0.000  -0.000   0.000  -0.000
  100        0.000   0.000   0.000   0.000
  101        0.000   0.000   0.000   0.000
  102       -0.000   0.001   0.000   0.001
  103        0.001  -0.000   0.000   0.001
  104        0.000  -0.000   0.000  -0.000
  105        0.000   0.000   0.000   0.000
  106        0.000  -0.000   0.000  -0.000
  107       -0.000   0.001   0.000   0.001
  108       -0.008  -0.031   0.000  -0.038
  109        0.000  -0.000   0.000   0.000
  110       -0.000  -0.000   0.000  -0.000
  111       -0.000  -0.000   0.000  -0.000
  112        0.000   0.000   0.000   0.000
  113       -0.006  -0.023   0.000  -0.029
  114        0.000   0.000   0.000   0.001
  115       -0.000   0.000   0.000   0.000
  116       -0.000  -0.000   0.000  -0.000
  117        0.000   0.000   0.000   0.000
  118        0.001  -0.000   0.000   0.001
  119        0.000  -0.000   0.000  -0.000
  120        0.000   0.000   0.000   0.000
  121        0.000  -0.000   0.000  -0.000
  122       -0.000   0.001   0.000   0.001
  123        0.000  -0.000   0.000   0.000
  124       -0.000  -0.000   0.000  -0.000
  125        0.000   0.000   0.000   0.000
  126        0.000   0.000   0.000   0.000
  127       -0.000   0.001   0.000   0.001
  128        0.000  -0.000   0.000   0.000
  129        0.000   0.000   0.000   0.000
  130        0.000  -0.000   0.000  -0.000
  131        0.000   0.000   0.000   0.000
  132        0.003   0.007   0.000   0.010
  133        0.000  -0.000   0.000   0.000
  134        0.000  -0.000   0.000  -0.000
  135        0.000  -0.000   0.000  -0.000
  136        0.000  -0.000   0.000   0.000
  137        0.003   0.007   0.000   0.010
  138        0.000  -0.000   0.000   0.000
  139        0.000   0.000   0.000   0.000
  140        0.000  -0.000   0.000  -0.000
  141        0.000   0.000   0.000   0.000
  142        0.003   0.007   0.000   0.010
  143        0.000  -0.000   0.000   0.000
  144        0.000  -0.000   0.000  -0.000
  145        0.000  -0.000   0.000  -0.000
  146        0.000  -0.000   0.000   0.000
  147        0.003   0.007   0.000   0.010
  148       -0.001  -0.003  -0.041  -0.044
  149        0.000  -0.000  -0.003  -0.003
  150       -0.000  -0.000  -0.001  -0.002
  151       -0.000  -0.000  -0.003  -0.003
  152        0.000   0.001   0.008   0.008
  153       -0.000  -0.002  -0.040  -0.042
  154       -0.000  -0.000  -0.003  -0.003
  155       -0.000   0.000   0.000   0.000
  156       -0.000  -0.000  -0.003  -0.003
  157        0.000   0.001   0.008   0.009
  158       -0.008  -0.015  -0.132  -0.155
  159        0.000   0.000  -0.001  -0.001
  160       -0.000   0.000  -0.001  -0.001
  161       -0.000  -0.000  -0.002  -0.002
  162        0.000   0.000   0.004   0.005
  163       -0.013  -0.018  -0.219  -0.249
  164        0.000  -0.000  -0.002  -0.002
  165       -0.000   0.000  -0.001  -0.001
  166       -0.000  -0.000  -0.002  -0.002
  167        0.000   0.000   0.004   0.004
  168        0.000  -0.000  -0.006  -0.006
  169       -0.000  -0.000  -0.001  -0.001
  170       -0.000  -0.000  -0.001  -0.001
  171       -0.000  -0.000   0.002   0.002
  172        0.003   0.003   0.065   0.070
  173        0.000  -0.000  -0.006  -0.006
  174       -0.000  -0.000  -0.001  -0.001
  175       -0.000  -0.000  -0.001  -0.001
  176       -0.000  -0.000   0.002   0.002
  177        0.003   0.003   0.065   0.070
  178       -0.000  -0.002  -0.040  -0.042
  179       -0.000  -0.000  -0.003  -0.003
  180       -0.000   0.000   0.000   0.000
  181       -0.000  -0.000  -0.003  -0.003
  182        0.000   0.001   0.008   0.009
  183       -0.001  -0.003  -0.041  -0.044
  184        0.000  -0.000  -0.003  -0.003
  185       -0.000  -0.000  -0.001  -0.002
  186       -0.000  -0.000  -0.003  -0.003
  187        0.000   0.001   0.008   0.008
  188       -0.013  -0.018  -0.219  -0.249
  189        0.000  -0.000  -0.002  -0.002
  190       -0.000   0.000  -0.001  -0.001
  191       -0.000  -0.000  -0.002  -0.002
  192        0.000   0.000   0.004   0.004
  193       -0.008  -0.015  -0.132  -0.155
  194        0.000   0.000  -0.001  -0.001
  195       -0.000   0.000  -0.001  -0.001
  196       -0.000  -0.000  -0.002  -0.002
  197        0.000   0.000   0.004   0.005
  198       -0.000  -0.000  -0.011  -0.012
  199       -0.000  -0.000  -0.003  -0.003
  200       -0.000   0.000  -0.001  -0.001
  201       -0.000  -0.000   0.002   0.002
  202        0.003   0.003   0.066   0.071
  203        0.000   0.000   0.001   0.002
  204       -0.000  -0.000  -0.003  -0.003
  205       -0.000  -0.000  -0.002  -0.002
  206       -0.000  -0.000   0.002   0.002
  207        0.003   0.003   0.064   0.070
--------------------------------------------------
tot         -0.024  -0.875  74.605  73.706
 

 total amount of memory used by VASP MPI-rank0  1125521. kBytes
=======================================================================

   base      :      30000. kBytes
   nonlr-proj:      15809. kBytes
   fftplans  :      16678. kBytes
   grid      :      43980. kBytes
   one-center:       1617. kBytes
   wavefun   :    1017437. kBytes
 
  
  
 General timing and accounting informations for this job:
 ========================================================
  
                  Total CPU time used (sec):      306.592
                            User time (sec):      285.965
                          System time (sec):       20.628
                         Elapsed time (sec):      632.560
  
                   Maximum memory used (kb):     1245016.
                   Average memory used (kb):           0.
  
                          Minor page faults:       343053
                          Major page faults:           22
                 Voluntary context switches:        41987
